<?xml version="1.0"?> 
<VTKFile type="StructuredGrid" version="0.1"> 
<StructuredGrid WholeExtent="0 19 0 19 0 0"> 
<Piece Extent="0 19 0 19 0 0"> 
<PointData Scalars="u">
<DataArray type="Float32" Name="u" format="ascii" NumberOfComponents="1"> 
7.6768e-018 1.42836e-019 -1.3069e-018 3.35103e-019 5.33349e-019 -1.28681e-019 -2.49031e-019 3.56471e-020 1.14027e-019 -4.99219e-021 -5.07394e-020 -2.85064e-021 2.20038e-020 3.48862e-021 -9.38221e-021 -2.28527e-021 4.13226e-021 6.97533e-022 -2.02586e-021 2.9319e-021 0.0754898 0.0732656 0.0713254 0.0696396 0.0681638 0.0668824 0.0657622 0.0647939 0.063952 0.0632306 0.0626107 0.0620877 0.0616475 0.0612862 0.0609936 0.0607661 0.0605961 0.0604803 0.0604133 0.0603919 0.1527 0.148201 0.144276 0.140866 0.137881 0.135289 0.133023 0.131064 0.129361 0.127902 0.126648 0.12559 0.124699 0.123969 0.123377 0.122917 0.122573 0.122338 0.122203 0.12216 0.230959 0.224155 0.218218 0.213061 0.208546 0.204625 0.201198 0.198235 0.19566 0.193453 0.191556 0.189956 0.188609 0.187504 0.186609 0.185912 0.185392 0.185038 0.184833 0.184768 0.309504 0.300385 0.29243 0.285519 0.279468 0.274214 0.269621 0.265651 0.2622 0.259242 0.2567 0.254556 0.252751 0.25127 0.250071 0.249138 0.248441 0.247966 0.247691 0.247603 0.38749 0.376074 0.366114 0.357461 0.349886 0.343309 0.337558 0.332588 0.328267 0.324564 0.321381 0.318697 0.316437 0.314583 0.313081 0.311913 0.311041 0.310446 0.310103 0.309992 0.464017 0.450346 0.438419 0.428057 0.418986 0.41111 0.404224 0.398272 0.393097 0.388663 0.384852 0.381638 0.378932 0.376711 0.374913 0.373514 0.372469 0.371757 0.371346 0.371214 0.538157 0.522301 0.508469 0.496451 0.48593 0.476796 0.468809 0.461907 0.455905 0.450762 0.446343 0.442615 0.439476 0.436901 0.434815 0.433193 0.431981 0.431155 0.430678 0.430525 0.608985 0.591042 0.57539 0.56179 0.549885 0.539548 0.530511 0.522699 0.515908 0.510088 0.505087 0.500868 0.497317 0.494403 0.492042 0.490207 0.488835 0.487901 0.487361 0.487188 0.675619 0.655713 0.638348 0.623261 0.610052 0.598585 0.588558 0.579892 0.572358 0.565902 0.560353 0.555672 0.551733 0.5485 0.545881 0.543844 0.542323 0.541286 0.540687 0.540495 0.737251 0.715529 0.69658 0.680117 0.665704 0.65319 0.642249 0.632792 0.62457 0.617525 0.61147 0.606363 0.602064 0.598536 0.595678 0.593456 0.591796 0.590664 0.590011 0.589801 0.793182 0.769812 0.749426 0.731713 0.716206 0.702743 0.690972 0.680798 0.671952 0.664373 0.657859 0.652364 0.647739 0.643943 0.640869 0.638478 0.636692 0.635475 0.634771 0.634546 0.842845 0.818012 0.796349 0.777527 0.76105 0.746744 0.734236 0.723424 0.714025 0.705971 0.699049 0.69321 0.688295 0.684262 0.680995 0.678454 0.676556 0.675263 0.674516 0.674276 0.885826 0.859727 0.836959 0.817178 0.79986 0.784824 0.771678 0.760316 0.750437 0.741972 0.734697 0.728561 0.723395 0.719156 0.715722 0.713052 0.711058 0.709698 0.708913 0.708661 0.921874 0.894713 0.871018 0.850432 0.832409 0.816762 0.803081 0.791256 0.780975 0.772166 0.764595 0.758208 0.752832 0.748421 0.744848 0.742069 0.739993 0.738579 0.737761 0.737499 0.950898 0.922882 0.898441 0.877207 0.858617 0.842477 0.828365 0.816168 0.805563 0.796477 0.788668 0.78208 0.776535 0.771985 0.768299 0.765432 0.763291 0.761832 0.760989 0.760719 0.972963 0.944297 0.919289 0.897562 0.878541 0.862026 0.847587 0.835107 0.824256 0.814959 0.806968 0.800228 0.794554 0.789898 0.786127 0.783194 0.781003 0.77951 0.778648 0.778371 0.988273 0.959155 0.933754 0.911685 0.892364 0.87559 0.860924 0.848247 0.837226 0.827782 0.819666 0.812819 0.807056 0.802327 0.798496 0.795517 0.793292 0.791776 0.790899 0.790619 0.997147 0.967768 0.942138 0.919871 0.900377 0.883452 0.868654 0.855864 0.844743 0.835215 0.827026 0.820118 0.814303 0.809531 0.805666 0.80266 0.800415 0.798885 0.798001 0.797718 1 0.970537 0.944834 0.922503 0.902954 0.88598 0.87114 0.858313 0.847161 0.837605 0.829392 0.822464 0.816633 0.811848 0.807972 0.804957 0.802706 0.801171 0.800285 0.8 </DataArray> 
</PointData> 
<Points> 
<DataArray type="Float32" NumberOfComponents="3"> 
1 0 0 1.05263 0 0 1.10526 0 0 1.15789 0 0 1.21053 0 0 1.26316 0 0 1.31579 0 0 1.36842 0 0 1.42105 0 0 1.47368 0 0 1.52632 0 0 1.57895 0 0 1.63158 0 0 1.68421 0 0 1.73684 0 0 1.78947 0 0 1.84211 0 0 1.89474 0 0 1.94737 0 0 2 0 0 0.997147 0.0754898 0 1.04963 0.079463 0 1.10211 0.0834361 0 1.15459 0.0874093 0 1.20707 0.0913824 0 1.25955 0.0953555 0 1.31203 0.0993287 0 1.36452 0.103302 0 1.417 0.107275 0 1.46948 0.111248 0 1.52196 0.115221 0 1.57444 0.119194 0 1.62692 0.123168 0 1.6794 0.127141 0 1.73189 0.131114 0 1.78437 0.135087 0 1.83685 0.13906 0 1.88933 0.143033 0 1.94181 0.147006 0 1.99429 0.15098 0 0.988273 0.1527 0 1.04029 0.160736 0 1.0923 0.168773 0 1.14432 0.17681 0 1.19633 0.184847 0 1.24834 0.192884 0 1.30036 0.20092 0 1.35237 0.208957 0 1.40439 0.216994 0 1.4564 0.225031 0 1.50842 0.233068 0 1.56043 0.241105 0 1.61244 0.249141 0 1.66446 0.257178 0 1.71647 0.265215 0 1.76849 0.273252 0 1.8205 0.281289 0 1.87252 0.289325 0 1.92453 0.297362 0 1.97655 0.305399 0 0.972963 0.230959 0 1.02417 0.243115 0 1.07538 0.255271 0 1.12659 0.267427 0 1.1778 0.279582 0 1.22901 0.291738 0 1.28022 0.303894 0 1.33142 0.31605 0 1.38263 0.328205 0 1.43384 0.340361 0 1.48505 0.352517 0 1.53626 0.364673 0 1.58747 0.376828 0 1.63868 0.388984 0 1.68988 0.40114 0 1.74109 0.413296 0 1.7923 0.425451 0 1.84351 0.437607 0 1.89472 0.449763 0 1.94593 0.461919 0 0.950898 0.309504 0 1.00095 0.325794 0 1.05099 0.342084 0 1.10104 0.358373 0 1.15109 0.374663 0 1.20113 0.390953 0 1.25118 0.407242 0 1.30123 0.423532 0 1.35128 0.439822 0 1.40132 0.456111 0 1.45137 0.472401 0 1.50142 0.488691 0 1.55147 0.504981 0 1.60151 0.52127 0 1.65156 0.53756 0 1.70161 0.55385 0 1.75165 0.570139 0 1.8017 0.586429 0 1.85175 0.602719 0 1.9018 0.619008 0 0.921874 0.38749 0 0.970393 0.407885 0 1.01891 0.428279 0 1.06743 0.448673 0 1.11595 0.469067 0 1.16447 0.489461 0 1.21299 0.509856 0 1.26151 0.53025 0 1.31003 0.550644 0 1.35855 0.571038 0 1.40707 0.591433 0 1.45559 0.611827 0 1.50411 0.632221 0 1.55263 0.652615 0 1.60115 0.67301 0 1.64967 0.693404 0 1.69819 0.713798 0 1.74671 0.734192 0 1.79523 0.754586 0 1.84375 0.774981 0 0.885826 0.464017 0 0.932449 0.488439 0 0.979071 0.512861 0 1.02569 0.537283 0 1.07232 0.561705 0 1.11894 0.586127 0 1.16556 0.610549 0 1.21218 0.634971 0 1.25881 0.659393 0 1.30543 0.683815 0 1.35205 0.708237 0 1.39867 0.732659 0 1.4453 0.757081 0 1.49192 0.781503 0 1.53854 0.805925 0 1.58516 0.830347 0 1.63179 0.854769 0 1.67841 0.879191 0 1.72503 0.903613 0 1.77165 0.928035 0 0.842845 0.538157 0 0.887205 0.566481 0 0.931565 0.594805 0 0.975926 0.623129 0 1.02029 0.651453 0 1.06465 0.679777 0 1.10901 0.708101 0 1.15337 0.736425 0 1.19773 0.764749 0 1.24209 0.793073 0 1.28645 0.821397 0 1.33081 0.849721 0 1.37517 0.878045 0 1.41953 0.906369 0 1.46389 0.934693 0 1.50825 0.963017 0 1.55261 0.991341 0 1.59697 1.01966 0 1.64133 1.04799 0 1.68569 1.07631 0 0.793182 0.608985 0 0.834928 0.641037 0 0.876675 0.673088 0 0.918421 0.70514 0 0.960168 0.737192 0 1.00191 0.769244 0 1.04366 0.801296 0 1.08541 0.833347 0 1.12715 0.865399 0 1.1689 0.897451 0 1.21065 0.929503 0 1.25239 0.961555 0 1.29414 0.993607 0 1.33589 1.02566 0 1.37763 1.05771 0 1.41938 1.08976 0 1.46112 1.12181 0 1.50287 1.15387 0 1.54462 1.18592 0 1.58636 1.21797 0 0.737251 0.675619 0 0.776054 0.711178 0 0.814857 0.746737 0 0.853659 0.782295 0 0.892462 0.817854 0 0.931265 0.853413 0 0.970067 0.888972 0 1.00887 0.924531 0 1.04767 0.96009 0 1.08648 0.995649 0 1.12528 1.03121 0 1.16408 1.06677 0 1.20288 1.10233 0 1.24169 1.13788 0 1.28049 1.17344 0 1.31929 1.209 0 1.35809 1.24456 0 1.3969 1.28012 0 1.4357 1.31568 0 1.4745 1.35124 0 0.675619 0.737251 0 0.711178 0.776054 0 0.746737 0.814857 0 0.782295 0.853659 0 0.817854 0.892462 0 0.853413 0.931265 0 0.888972 0.970067 0 0.924531 1.00887 0 0.96009 1.04767 0 0.995649 1.08648 0 1.03121 1.12528 0 1.06677 1.16408 0 1.10233 1.20288 0 1.13788 1.24169 0 1.17344 1.28049 0 1.209 1.31929 0 1.24456 1.35809 0 1.28012 1.3969 0 1.31568 1.4357 0 1.35124 1.4745 0 0.608985 0.793182 0 0.641037 0.834928 0 0.673088 0.876675 0 0.70514 0.918421 0 0.737192 0.960168 0 0.769244 1.00191 0 0.801296 1.04366 0 0.833347 1.08541 0 0.865399 1.12715 0 0.897451 1.1689 0 0.929503 1.21065 0 0.961555 1.25239 0 0.993607 1.29414 0 1.02566 1.33589 0 1.05771 1.37763 0 1.08976 1.41938 0 1.12181 1.46112 0 1.15387 1.50287 0 1.18592 1.54462 0 1.21797 1.58636 0 0.538157 0.842845 0 0.566481 0.887205 0 0.594805 0.931565 0 0.623129 0.975926 0 0.651453 1.02029 0 0.679777 1.06465 0 0.708101 1.10901 0 0.736425 1.15337 0 0.764749 1.19773 0 0.793073 1.24209 0 0.821397 1.28645 0 0.849721 1.33081 0 0.878045 1.37517 0 0.906369 1.41953 0 0.934693 1.46389 0 0.963017 1.50825 0 0.991341 1.55261 0 1.01966 1.59697 0 1.04799 1.64133 0 1.07631 1.68569 0 0.464017 0.885826 0 0.488439 0.932449 0 0.512861 0.979071 0 0.537283 1.02569 0 0.561705 1.07232 0 0.586127 1.11894 0 0.610549 1.16556 0 0.634971 1.21218 0 0.659393 1.25881 0 0.683815 1.30543 0 0.708237 1.35205 0 0.732659 1.39867 0 0.757081 1.4453 0 0.781503 1.49192 0 0.805925 1.53854 0 0.830347 1.58516 0 0.854769 1.63179 0 0.879191 1.67841 0 0.903613 1.72503 0 0.928035 1.77165 0 0.38749 0.921874 0 0.407885 0.970393 0 0.428279 1.01891 0 0.448673 1.06743 0 0.469067 1.11595 0 0.489461 1.16447 0 0.509856 1.21299 0 0.53025 1.26151 0 0.550644 1.31003 0 0.571038 1.35855 0 0.591433 1.40707 0 0.611827 1.45559 0 0.632221 1.50411 0 0.652615 1.55263 0 0.67301 1.60115 0 0.693404 1.64967 0 0.713798 1.69819 0 0.734192 1.74671 0 0.754586 1.79523 0 0.774981 1.84375 0 0.309504 0.950898 0 0.325794 1.00095 0 0.342084 1.05099 0 0.358373 1.10104 0 0.374663 1.15109 0 0.390953 1.20113 0 0.407242 1.25118 0 0.423532 1.30123 0 0.439822 1.35128 0 0.456111 1.40132 0 0.472401 1.45137 0 0.488691 1.50142 0 0.504981 1.55147 0 0.52127 1.60151 0 0.53756 1.65156 0 0.55385 1.70161 0 0.570139 1.75165 0 0.586429 1.8017 0 0.602719 1.85175 0 0.619008 1.9018 0 0.230959 0.972963 0 0.243115 1.02417 0 0.255271 1.07538 0 0.267427 1.12659 0 0.279582 1.1778 0 0.291738 1.22901 0 0.303894 1.28022 0 0.31605 1.33142 0 0.328205 1.38263 0 0.340361 1.43384 0 0.352517 1.48505 0 0.364673 1.53626 0 0.376828 1.58747 0 0.388984 1.63868 0 0.40114 1.68988 0 0.413296 1.74109 0 0.425451 1.7923 0 0.437607 1.84351 0 0.449763 1.89472 0 0.461919 1.94593 0 0.1527 0.988273 0 0.160736 1.04029 0 0.168773 1.0923 0 0.17681 1.14432 0 0.184847 1.19633 0 0.192884 1.24834 0 0.20092 1.30036 0 0.208957 1.35237 0 0.216994 1.40439 0 0.225031 1.4564 0 0.233068 1.50842 0 0.241105 1.56043 0 0.249141 1.61244 0 0.257178 1.66446 0 0.265215 1.71647 0 0.273252 1.76849 0 0.281289 1.8205 0 0.289325 1.87252 0 0.297362 1.92453 0 0.305399 1.97655 0 0.0754898 0.997147 0 0.079463 1.04963 0 0.0834361 1.10211 0 0.0874093 1.15459 0 0.0913824 1.20707 0 0.0953555 1.25955 0 0.0993287 1.31203 0 0.103302 1.36452 0 0.107275 1.417 0 0.111248 1.46948 0 0.115221 1.52196 0 0.119194 1.57444 0 0.123168 1.62692 0 0.127141 1.6794 0 0.131114 1.73189 0 0.135087 1.78437 0 0.13906 1.83685 0 0.143033 1.88933 0 0.147006 1.94181 0 0.15098 1.99429 0 0 1 0 0 1.05263 0 0 1.10526 0 0 1.15789 0 0 1.21053 0 0 1.26316 0 0 1.31579 0 0 1.36842 0 0 1.42105 0 0 1.47368 0 0 1.52632 0 0 1.57895 0 0 1.63158 0 0 1.68421 0 0 1.73684 0 0 1.78947 0 0 1.84211 0 0 1.89474 0 0 1.94737 0 0 2 0 
</DataArray>
</Points> 
</Piece> 
</StructuredGrid> 
</VTKFile> 
