<?xml version="1.0"?> 
<VTKFile type="StructuredGrid" version="0.1"> 
<StructuredGrid WholeExtent="0 20 0 20 0 0"> 
<Piece Extent="0 20 0 20 0 0"> 
<PointData Scalars="u">
<DataArray type="Float32" Name="u" format="ascii" NumberOfComponents="1"> 
0 0.0264106 0.0536897 0.0819569 0.111346 0.142005 0.174096 0.207792 0.243275 0.28073 0.32034 0.362223 0.406552 0.453404 0.502798 0.554671 0.608861 0.665094 0.722972 0.781975 0.841469 0 0.027951 0.056621 0.0860496 0.116282 0.147372 0.179386 0.212406 0.246532 0.281888 0.318617 0.359406 0.40403 0.452774 0.505855 0.563401 0.625419 0.691769 0.762138 0.836028 0.912753 0 0.0285024 0.0574778 0.0868561 0.116561 0.146519 0.176662 0.206943 0.23734 0.267871 0.298596 0.338275 0.382911 0.433027 0.489106 0.551562 0.620693 0.696641 0.779347 0.86851 0.96357 0 0.0283238 0.0568315 0.0853278 0.113602 0.141441 0.168636 0.195004 0.2204 0.244731 0.267968 0.305997 0.349796 0.400146 0.457836 0.523635 0.598239 0.682214 0.775932 0.8795 0.992714 0 0.0276188 0.0551254 0.0821952 0.108483 0.13364 0.157331 0.179253 0.199161 0.216875 0.232302 0.267918 0.309794 0.35896 0.416525 0.483649 0.561496 0.65117 0.753637 0.869628 0.99955 0 0.0265361 0.0526773 0.0779723 0.10195 0.124142 0.144106 0.161453 0.17587 0.187137 0.195137 0.227639 0.266575 0.313188 0.368879 0.435192 0.513784 0.606364 0.714613 0.84007 0.984016 0 0.0252092 0.0497706 0.0731146 0.094659 0.113838 0.130136 0.143114 0.15244 0.157906 0.159432 0.188219 0.223315 0.26611 0.318238 0.381581 0.458261 0.550605 0.661079 0.792176 0.946284 0 0.0237255 0.0465856 0.0679043 0.087006 0.103253 0.116085 0.125056 0.129858 0.130343 0.12652 0.151201 0.181799 0.21978 0.266927 0.325377 0.39764 0.486611 0.595528 0.727899 0.887366 0 0.0221592 0.0432739 0.0625754 0.079314 0.0928052 0.102476 0.107907 0.108855 0.105272 0.0972937 0.117704 0.143415 0.175887 0.216953 0.268889 0.33447 0.417037 0.520503 0.649344 0.808504 0 0.0205659 0.039947 0.0572962 0.071809 0.0827785 0.0896474 0.0920529 0.0898503 0.0831198 0.0721513 0.0883149 0.108988 0.135545 0.169763 0.213917 0.27089 0.344284 0.438511 0.558852 0.711455 0 0.0189827 0.0366764 0.0521702 0.0646231 0.0733265 0.0777624 0.0776497 0.0729634 0.0639328 0.0510154 0.0631076 0.0788051 0.0993174 0.126257 0.161762 0.208632 0.270508 0.352027 0.458997 0.598489 0 0.017442 0.0335239 0.0472856 0.0578656 0.0645725 0.0669464 0.0648051 0.0582572 0.0476903 0.0337331 0.0420621 0.053033 0.0676216 0.0871761 0.113549 0.149261 0.197718 0.263446 0.352367 0.472025 0 0.015962 0.0305221 0.0426842 0.0515811 0.0565535 0.0572137 0.0534897 0.0456294 0.0341779 0.0199263 0.0248758 0.031489 0.0404559 0.0527752 0.069883 0.0938227 0.12749 0.174912 0.241616 0.334986 0 0.0145568 0.0276952 0.0383952 0.0457966 0.0492838 0.0485505 0.0436399 0.0349384 0.0231381 0.00917061 0.0111826 0.0139062 0.017711 0.02318 0.0312195 0.0432139 0.0612627 0.0884765 0.129393 0.190429 0 0.0132354 0.0250571 0.0344324 0.0405183 0.0427517 0.0409132 0.0351614 0.0260134 0.0142923 0.00104152 0.000580959 -6.12714e-005 -0.000853639 -0.00167428 -0.00223658 -0.00197335 0.000153694 0.0059158 0.0182173 0.0415743 0 0.0120013 0.022611 0.0307935 0.0357317 0.0369206 0.03423 0.0279293 0.0186553 0.00734127 -0.00488599 -0.0073654 -0.0108347 -0.0156044 -0.0220371 -0.0305254 -0.0414417 -0.0550365 -0.0712711 -0.0895251 -0.1082 0 0.0108567 0.0203579 0.0274736 0.0314191 0.0317509 0.0284266 0.0218193 0.0126703 0.00199919 -0.00901286 -0.0130747 -0.0188283 -0.0269166 -0.0381883 -0.0537453 -0.0749831 -0.103625 -0.141716 -0.191557 -0.25553 0 0.00980042 0.0182923 0.0244586 0.0275518 0.0271919 0.0234204 0.0167048 0.00787373 -0.00199002 -0.0116812 -0.0169254 -0.0244496 -0.0352068 -0.050515 -0.0721854 -0.102677 -0.145308 -0.204484 -0.285973 -0.397152 0 0.00883011 0.0164068 0.0217321 0.0240992 0.023191 0.0191281 0.0124609 0.00408804 -0.00486851 -0.0132096 -0.0192764 -0.0280946 -0.040893 -0.0594241 -0.0861797 -0.124678 -0.179888 -0.258762 -0.370985 -0.529839 0 0.00794247 0.0146923 0.0192758 0.0210291 0.0196962 0.0154704 0.0089728 0.00115426 -0.00684675 -0.0138642 -0.0204392 -0.0301205 -0.0443713 -0.06533 -0.0961151 -0.141257 -0.207366 -0.304025 -0.445137 -0.650621 0 0.00713311 0.0131381 0.0170698 0.0183083 0.016656 0.0123717 0.00613483 -0.00106843 -0.00810471 -0.0138609 -0.0206796 -0.0308472 -0.0460176 -0.0686551 -0.102431 -0.1528 -0.227938 -0.340024 -0.507306 -0.756793 </DataArray> 
</PointData> 
<Points> 
<DataArray type="Float32" NumberOfComponents="3"> 
-1 0 0 -0.997428 0.0716693 0 -0.989443 0.144919 0 -0.975684 0.219182 0 -0.955863 0.293812 0 -0.929788 0.368095 0 -0.897376 0.441267 0 -0.858665 0.512538 0 -0.813826 0.581109 0 -0.763163 0.646206 0 -0.707107 0.707107 0 -0.646206 0.763163 0 -0.581109 0.813826 0 -0.512538 0.858665 0 -0.441267 0.897376 0 -0.368095 0.929788 0 -0.293812 0.955863 0 -0.219182 0.975684 0 -0.144919 0.989443 0 -0.0716693 0.997428 0 0 1 0 -1.15 0 0 -1.15163 0.0885316 0 -1.14791 0.1794 0 -1.13845 0.271969 0 -1.12295 0.365505 0 -1.10118 0.459196 0 -1.07304 0.552164 0 -1.0385 0.64349 0 -0.997692 0.732238 0 -0.950856 0.817487 0 -0.898359 0.898359 0 -0.817487 0.950856 0 -0.732238 0.997692 0 -0.64349 1.0385 0 -0.552164 1.07304 0 -0.459196 1.10118 0 -0.365505 1.12295 0 -0.271969 1.13845 0 -0.1794 1.14791 0 -0.0885316 1.15163 0 0 1.15 0 -1.3 0 0 -1.3054 0.105346 0 -1.3055 0.213691 0 -1.29991 0.324332 0 -1.28832 0.436464 0 -1.27049 0.549186 0 -1.24626 0.661526 0 -1.21561 0.772459 0 -1.1786 0.880935 0 -1.13542 0.985912 0 -1.08639 1.08639 0 -0.985912 1.13542 0 -0.880935 1.1786 0 -0.772459 1.21561 0 -0.661526 1.24626 0 -0.549186 1.27049 0 -0.436464 1.28832 0 -0.324332 1.29991 0 -0.213691 1.3055 0 -0.105346 1.3054 0 0 1.3 0 -1.45 0 0 -1.45872 0.122112 0 -1.46221 0.247792 0 -1.46008 0.376278 0 -1.45201 0.5067 0 -1.43774 0.638087 0 -1.41711 0.769386 0 -1.39006 0.89949 0 -1.35662 1.02726 0 -1.31693 1.15155 0 -1.27127 1.27127 0 -1.15155 1.31693 0 -1.02726 1.35662 0 -0.89949 1.39006 0 -0.769386 1.41711 0 -0.638087 1.43774 0 -0.5067 1.45201 0 -0.376278 1.46008 0 -0.247792 1.46221 0 -0.122112 1.45872 0 0 1.45 0 -1.6 0 0 -1.61161 0.13883 0 -1.61807 0.281705 0 -1.61898 0.427812 0 -1.61404 0.576225 0 -1.60298 0.725917 0 -1.58563 0.875775 0 -1.56191 1.02463 0 -1.53181 1.17126 0 -1.49547 1.31447 0 -1.45308 1.45308 0 -1.31447 1.49547 0 -1.17126 1.53181 0 -1.02463 1.56191 0 -0.875775 1.58563 0 -0.725917 1.60298 0 -0.576225 1.61404 0 -0.427812 1.61898 0 -0.281705 1.61807 0 -0.13883 1.61161 0 0 1.6 0 -1.75 0 0 -1.76407 0.155501 0 -1.77307 0.315432 0 -1.77663 0.478937 0 -1.77444 0.645049 0 -1.76625 0.812696 0 -1.75187 0.980721 0 -1.73121 1.14791 0 -1.70426 1.313 0 -1.6711 1.47475 0 -1.63191 1.63191 0 -1.47475 1.6711 0 -1.313 1.70426 0 -1.14791 1.73121 0 -0.980721 1.75187 0 -0.812696 1.76625 0 -0.645049 1.77444 0 -0.478937 1.77663 0 -0.315432 1.77307 0 -0.155501 1.76407 0 0 1.75 0 -1.9 0 0 -1.91609 0.172125 0 -1.92722 0.348974 0 -1.93303 0.52966 0 -1.93323 0.713182 0 -1.92757 0.898442 0 -1.91587 1.08426 0 -1.89802 1.26938 0 -1.87401 1.45253 0 -1.84389 1.63243 0 -1.80781 1.80781 0 -1.63243 1.84389 0 -1.45253 1.87401 0 -1.26938 1.89802 0 -1.08426 1.91587 0 -0.898442 1.92757 0 -0.713182 1.93323 0 -0.52966 1.93303 0 -0.348974 1.92722 0 -0.172125 1.91609 0 0 1.9 0 -2.05 0 0 -2.06769 0.188702 0 -2.08053 0.382333 0 -2.0882 0.579984 0 -2.09043 0.780636 0 -2.08698 0.983174 0 -2.07767 1.1864 0 -2.0624 1.38908 0 -2.04114 1.58991 0 -2.01393 1.7876 0 -1.98087 1.98087 0 -1.7876 2.01393 0 -1.58991 2.04114 0 -1.38908 2.0624 0 -1.1864 2.07767 0 -0.983174 2.08698 0 -0.780636 2.09043 0 -0.579984 2.0882 0 -0.382333 2.08053 0 -0.188702 2.06769 0 0 2.05 0 -2.2 0 0 -2.21885 0.205231 0 -2.233 0.415511 0 -2.24216 0.629916 0 -2.24607 0.84742 0 -2.24451 1.06691 0 -2.23733 1.2872 0 -2.2244 1.50704 0 -2.20571 1.72517 0 -2.18126 1.9403 0 -2.15115 2.15115 0 -1.9403 2.18126 0 -1.72517 2.20571 0 -1.50704 2.2244 0 -1.2872 2.23733 0 -1.06691 2.24451 0 -0.84742 2.24607 0 -0.629916 2.24216 0 -0.415511 2.233 0 -0.205231 2.21885 0 0 2.2 0 -2.35 0 0 -2.36958 0.221714 0 -2.38465 0.448509 0 -2.39493 0.679458 0 -2.40018 0.913543 0 -2.40021 1.14967 0 -2.39487 1.38666 0 -2.38407 1.62331 0 -2.36776 1.85837 0 -2.34595 2.09059 0 -2.31872 2.31872 0 -2.09059 2.34595 0 -1.85837 2.36776 0 -1.62331 2.38407 0 -1.38666 2.39487 0 -1.14967 2.40021 0 -0.913543 2.40018 0 -0.679458 2.39493 0 -0.448509 2.38465 0 -0.221714 2.36958 0 0 2.35 0 -2.5 0 0 -2.5199 0.238151 0 -2.53548 0.481328 0 -2.5465 0.728615 0 -2.55277 0.979017 0 -2.5541 1.23146 0 -2.55036 1.48482 0 -2.54146 1.73792 0 -2.52737 1.98956 0 -2.50807 2.23853 0 -2.48364 2.48364 0 -2.23853 2.50807 0 -1.98956 2.52737 0 -1.73792 2.54146 0 -1.48482 2.55036 0 -1.23146 2.5541 0 -0.979017 2.55277 0 -0.728615 2.5465 0 -0.481328 2.53548 0 -0.238151 2.5199 0 0 2.5 0 -2.65 0 0 -2.66978 0.254541 0 -2.68549 0.513969 0 -2.69691 0.777393 0 -2.70386 1.04385 0 -2.70621 1.31231 0 -2.70382 1.5817 0 -2.69662 1.8509 0 -2.68457 2.11878 0 -2.66768 2.38418 0 -2.64597 2.64597 0 -2.38418 2.66768 0 -2.11878 2.68457 0 -1.8509 2.69662 0 -1.5817 2.70382 0 -1.31231 2.70621 0 -1.04385 2.70386 0 -0.777393 2.69691 0 -0.513969 2.68549 0 -0.254541 2.66978 0 0 2.65 0 -2.8 0 0 -2.81925 0.270885 0 -2.83469 0.546435 0 -2.84615 0.825796 0 -2.85349 1.10805 0 -2.85657 1.39223 0 -2.85529 1.67733 0 -2.8496 1.9623 0 -2.83944 2.24607 0 -2.82483 2.52759 0 -2.80578 2.80578 0 -2.52759 2.82483 0 -2.24607 2.83944 0 -1.9623 2.8496 0 -1.67733 2.85529 0 -1.39223 2.85657 0 -1.10805 2.85349 0 -0.825796 2.84615 0 -0.546435 2.83469 0 -0.270885 2.81925 0 0 2.8 0 -2.95 0 0 -2.96829 0.287183 0 -2.98309 0.578727 0 -2.99426 0.873827 0 -3.00166 1.17163 0 -3.00521 1.47124 0 -3.00482 1.77173 0 -3.00043 2.07213 0 -2.99202 2.37149 0 -2.97958 2.66881 0 -2.96312 2.96312 0 -2.66881 2.97958 0 -2.37149 2.99202 0 -2.07213 3.00043 0 -1.77173 3.00482 0 -1.47124 3.00521 0 -1.17163 3.00166 0 -0.873827 2.99426 0 -0.578727 2.98309 0 -0.287183 2.96829 0 0 2.95 0 -3.1 0 0 -3.11692 0.303435 0 -3.1307 0.610845 0 -3.14123 0.921491 0 -3.14841 1.2346 0 -3.15216 1.54935 0 -3.15243 1.86492 0 -3.14917 2.18044 0 -3.14236 2.49506 0 -3.13198 2.80788 0 -3.11805 3.11805 0 -2.80788 3.13198 0 -2.49506 3.14236 0 -2.18044 3.14917 0 -1.86492 3.15243 0 -1.54935 3.15216 0 -1.2346 3.14841 0 -0.921491 3.14123 0 -0.610845 3.1307 0 -0.303435 3.11692 0 0 3.1 0 -3.25 0 0 -3.26513 0.319642 0 -3.27752 0.642792 0 -3.28708 0.968792 0 -3.29375 1.29696 0 -3.29746 1.62658 0 -3.29818 1.95693 0 -3.29587 2.28726 0 -3.2905 2.61683 0 -3.28209 2.94487 0 -3.27063 3.27063 0 -2.94487 3.28209 0 -2.61683 3.2905 0 -2.28726 3.29587 0 -1.95693 3.29818 0 -1.62658 3.29746 0 -1.29696 3.29375 0 -0.968792 3.28708 0 -0.642792 3.27752 0 -0.319642 3.26513 0 0 3.25 0 -3.4 0 0 -3.41293 0.335804 0 -3.42355 0.674569 0 -3.43183 1.01574 0 -3.43769 1.35872 0 -3.44112 1.70294 0 -3.44208 2.04778 0 -3.44055 2.39262 0 -3.43651 2.73684 0 -3.42996 3.07981 0 -3.42091 3.42091 0 -3.07981 3.42996 0 -2.73684 3.43651 0 -2.39262 3.44055 0 -2.04778 3.44208 0 -1.70294 3.44112 0 -1.35872 3.43769 0 -1.01574 3.43183 0 -0.674569 3.42355 0 -0.335804 3.41293 0 0 3.4 0 -3.55 0 0 -3.56031 0.35192 0 -3.56881 0.706176 0 -3.57548 1.06232 0 -3.58028 1.4199 0 -3.58318 1.77845 0 -3.58418 2.13749 0 -3.58326 2.49654 0 -3.58042 2.85512 0 -3.57564 3.21275 0 -3.56893 3.56893 0 -3.21275 3.57564 0 -2.85512 3.58042 0 -2.49654 3.58326 0 -2.13749 3.58418 0 -1.77845 3.58318 0 -1.4199 3.58028 0 -1.06232 3.57548 0 -0.706176 3.56881 0 -0.35192 3.56031 0 0 3.55 0 -3.7 0 0 -3.70728 0.367991 0 -3.7133 0.737617 0 -3.71805 1.10856 0 -3.72151 1.4805 0 -3.72367 1.85312 0 -3.72452 2.22608 0 -3.72405 2.59906 0 -3.72227 2.97172 0 -3.71917 3.34373 0 -3.71476 3.71476 0 -3.34373 3.71917 0 -2.97172 3.72227 0 -2.59906 3.72405 0 -2.22608 3.72452 0 -1.85312 3.72367 0 -1.4805 3.72151 0 -1.10856 3.71805 0 -0.737617 3.7133 0 -0.367991 3.70728 0 0 3.7 0 -3.85 0 0 -3.85385 0.384018 0 -3.85703 0.768891 0 -3.85955 1.15445 0 -3.86141 1.54053 0 -3.8626 1.92697 0 -3.86311 2.31358 0 -3.86295 2.7002 0 -3.86212 3.08667 0 -3.86061 3.4728 0 -3.85843 3.85843 0 -3.4728 3.86061 0 -3.08667 3.86212 0 -2.7002 3.86295 0 -2.31358 3.86311 0 -1.92697 3.8626 0 -1.54053 3.86141 0 -1.15445 3.85955 0 -0.768891 3.85703 0 -0.384018 3.85385 0 0 3.85 0 -4 0 0 -4 0.4 0 -4 0.8 0 -4 1.2 0 -4 1.6 0 -4 2 0 -4 2.4 0 -4 2.8 0 -4 3.2 0 -4 3.6 0 -4 4 0 -3.6 4 0 -3.2 4 0 -2.8 4 0 -2.4 4 0 -2 4 0 -1.6 4 0 -1.2 4 0 -0.8 4 0 -0.4 4 0 0 4 0 
</DataArray>
</Points> 
</Piece> 
</StructuredGrid> 
</VTKFile> 
