<?xml version="1.0"?> 
<VTKFile type="StructuredGrid" version="0.1"> 
<StructuredGrid WholeExtent="0 19 0 19 0 0"> 
<Piece Extent="0 19 0 19 0 0"> 
<PointData Scalars="u">
<DataArray type="Float32" Name="u" format="ascii" NumberOfComponents="1"> 
-1.07671e-006 3.48362e-006 3.41554e-006 3.87932e-006 5.05044e-006 5.60442e-006 6.06497e-006 7.5774e-006 8.26289e-006 4.505e-006 -3.45102e-006 -1.22919e-005 -2.77055e-005 -6.56169e-005 -0.000124702 -0.000175781 -0.000153308 8.00469e-005 0.00118126 0.00527626 0.203849 0.237986 0.276449 0.319657 0.368082 0.422219 0.482618 0.549858 0.624578 0.707461 0.799243 0.900716 1.01273 1.13621 1.27213 1.42153 1.58551 1.76522 1.9617 2.17558 0.403937 0.471073 0.54655 0.631146 0.725713 0.83114 0.948396 1.0785 1.22254 1.38167 1.55711 1.75014 1.96213 2.19449 2.4487 2.72632 3.02896 3.35828 3.716 4.10388 0.589471 0.68614 0.794423 0.915303 1.04982 1.19906 1.36413 1.54619 1.74642 1.96601 2.20616 2.46806 2.75289 3.06177 3.39575 3.75582 4.14284 4.55753 5.00055 5.47248 0.750792 0.871715 1.00652 1.15621 1.3218 1.50432 1.70474 1.92403 2.16306 2.42264 2.70344 3.00598 3.3306 3.67739 4.04619 4.43643 4.84726 5.27723 5.72451 6.18648 0.879013 1.01741 1.17078 1.33997 1.52577 1.72892 1.95 2.18947 2.4476 2.72444 3.01975 3.33298 3.66319 4.00898 4.36848 4.73916 5.11799 5.50098 5.88363 6.26017 0.968945 1.11758 1.28119 1.46037 1.65554 1.867 2.09479 2.33875 2.59834 2.87276 3.1607 3.46042 3.76962 4.08535 4.40406 4.72135 5.03218 5.33044 5.60941 5.86123 1.01791 1.16973 1.33572 1.51616 1.71106 1.92031 2.14339 2.37958 2.62763 2.88596 3.1524 3.42424 3.69816 3.97009 4.23533 4.48823 4.72259 4.93108 5.10591 5.23836 1.02666 1.17542 1.337 1.5114 1.69831 1.89725 2.10733 2.32735 2.55563 2.79007 3.02797 3.26611 3.50061 3.72689 3.93978 4.13325 4.30077 4.43489 4.52782 4.57105 0.998625 1.13931 1.29124 1.45423 1.62777 1.81119 2.00337 2.20295 2.40804 2.61639 2.82519 3.03111 3.23028 3.41817 3.58974 3.73925 3.86055 3.94679 3.99087 3.9852 0.938908 1.06771 1.20618 1.35404 1.51073 1.67554 1.84735 2.02483 2.20621 2.38939 2.57179 2.75039 2.92172 3.08178 3.22613 3.34978 3.44743 3.51324 3.5412 3.52501 0.853958 0.968263 1.09074 1.22112 1.35888 1.50342 1.65376 1.80879 1.96703 2.12673 2.28578 2.44172 2.59174 2.7326 2.86075 2.97219 3.06269 3.1276 3.16214 3.16133 0.750552 0.848774 0.953796 1.06541 1.18324 1.3068 1.43539 1.56819 1.7041 1.84183 1.97984 2.11633 2.24924 2.37619 2.49458 2.60147 2.69375 2.76795 2.82052 2.84767 0.635476 0.716866 0.803776 0.896081 0.993542 1.09586 1.20258 1.31318 1.42694 1.54305 1.66049 1.77809 1.89452 2.00822 2.11747 2.22032 2.31469 2.39825 2.46855 2.52295 0.515161 0.579733 0.648617 0.721759 0.79904 0.880305 0.965315 1.05378 1.14531 1.23945 1.33565 1.43323 1.53144 1.6294 1.72612 1.82047 1.91123 1.99703 2.07639 2.14771 0.39529 0.443719 0.495325 0.550103 0.608013 0.669002 0.732971 0.799801 0.869324 0.941338 1.01559 1.09178 1.16956 1.24851 1.32818 1.40801 1.48742 1.56573 1.64222 1.71608 0.280743 0.314271 0.349937 0.387752 0.427716 0.46982 0.514044 0.560354 0.6087 0.65902 0.711229 0.765227 0.820893 0.878079 0.936618 0.996314 1.05695 1.11826 1.17999 1.24183 0.17512 0.195435 0.216986 0.239786 0.263843 0.289163 0.315749 0.343602 0.372716 0.403085 0.434696 0.467531 0.501568 0.536778 0.573129 0.610576 0.649075 0.688566 0.728987 0.770257 0.081109 0.0902106 0.099829 0.109968 0.120633 0.131826 0.14355 0.15581 0.168607 0.181943 0.195822 0.210243 0.225208 0.240718 0.256772 0.273369 0.290505 0.308176 0.326364 0.345026 -1.5486e-007 1.09797e-007 1.72712e-007 1.80084e-007 1.26412e-007 -3.80306e-008 -2.95428e-007 -6.06731e-007 -1.06052e-006 -1.81439e-006 -2.78543e-006 -3.69272e-006 -4.58851e-006 -5.89803e-006 -6.85613e-006 -4.80123e-006 5.92482e-006 3.69546e-005 0.000130083 0.000411712 </DataArray> 
</PointData> 
<Points> 
<DataArray type="Float32" NumberOfComponents="3"> 
1 0 0 1.05263 0 0 1.10526 0 0 1.15789 0 0 1.21053 0 0 1.26316 0 0 1.31579 0 0 1.36842 0 0 1.42105 0 0 1.47368 0 0 1.52632 0 0 1.57895 0 0 1.63158 0 0 1.68421 0 0 1.73684 0 0 1.78947 0 0 1.84211 0 0 1.89474 0 0 1.94737 0 0 2 0 0 0.997147 0.0754898 0 1.04963 0.079463 0 1.10211 0.0834361 0 1.15459 0.0874093 0 1.20707 0.0913824 0 1.25955 0.0953555 0 1.31203 0.0993287 0 1.36452 0.103302 0 1.417 0.107275 0 1.46948 0.111248 0 1.52196 0.115221 0 1.57444 0.119194 0 1.62692 0.123168 0 1.6794 0.127141 0 1.73189 0.131114 0 1.78437 0.135087 0 1.83685 0.13906 0 1.88933 0.143033 0 1.94181 0.147006 0 1.99429 0.15098 0 0.988273 0.1527 0 1.04029 0.160736 0 1.0923 0.168773 0 1.14432 0.17681 0 1.19633 0.184847 0 1.24834 0.192884 0 1.30036 0.20092 0 1.35237 0.208957 0 1.40439 0.216994 0 1.4564 0.225031 0 1.50842 0.233068 0 1.56043 0.241105 0 1.61244 0.249141 0 1.66446 0.257178 0 1.71647 0.265215 0 1.76849 0.273252 0 1.8205 0.281289 0 1.87252 0.289325 0 1.92453 0.297362 0 1.97655 0.305399 0 0.972963 0.230959 0 1.02417 0.243115 0 1.07538 0.255271 0 1.12659 0.267427 0 1.1778 0.279582 0 1.22901 0.291738 0 1.28022 0.303894 0 1.33142 0.31605 0 1.38263 0.328205 0 1.43384 0.340361 0 1.48505 0.352517 0 1.53626 0.364673 0 1.58747 0.376828 0 1.63868 0.388984 0 1.68988 0.40114 0 1.74109 0.413296 0 1.7923 0.425451 0 1.84351 0.437607 0 1.89472 0.449763 0 1.94593 0.461919 0 0.950898 0.309504 0 1.00095 0.325794 0 1.05099 0.342084 0 1.10104 0.358373 0 1.15109 0.374663 0 1.20113 0.390953 0 1.25118 0.407242 0 1.30123 0.423532 0 1.35128 0.439822 0 1.40132 0.456111 0 1.45137 0.472401 0 1.50142 0.488691 0 1.55147 0.504981 0 1.60151 0.52127 0 1.65156 0.53756 0 1.70161 0.55385 0 1.75165 0.570139 0 1.8017 0.586429 0 1.85175 0.602719 0 1.9018 0.619008 0 0.921874 0.38749 0 0.970393 0.407885 0 1.01891 0.428279 0 1.06743 0.448673 0 1.11595 0.469067 0 1.16447 0.489461 0 1.21299 0.509856 0 1.26151 0.53025 0 1.31003 0.550644 0 1.35855 0.571038 0 1.40707 0.591433 0 1.45559 0.611827 0 1.50411 0.632221 0 1.55263 0.652615 0 1.60115 0.67301 0 1.64967 0.693404 0 1.69819 0.713798 0 1.74671 0.734192 0 1.79523 0.754586 0 1.84375 0.774981 0 0.885826 0.464017 0 0.932449 0.488439 0 0.979071 0.512861 0 1.02569 0.537283 0 1.07232 0.561705 0 1.11894 0.586127 0 1.16556 0.610549 0 1.21218 0.634971 0 1.25881 0.659393 0 1.30543 0.683815 0 1.35205 0.708237 0 1.39867 0.732659 0 1.4453 0.757081 0 1.49192 0.781503 0 1.53854 0.805925 0 1.58516 0.830347 0 1.63179 0.854769 0 1.67841 0.879191 0 1.72503 0.903613 0 1.77165 0.928035 0 0.842845 0.538157 0 0.887205 0.566481 0 0.931565 0.594805 0 0.975926 0.623129 0 1.02029 0.651453 0 1.06465 0.679777 0 1.10901 0.708101 0 1.15337 0.736425 0 1.19773 0.764749 0 1.24209 0.793073 0 1.28645 0.821397 0 1.33081 0.849721 0 1.37517 0.878045 0 1.41953 0.906369 0 1.46389 0.934693 0 1.50825 0.963017 0 1.55261 0.991341 0 1.59697 1.01966 0 1.64133 1.04799 0 1.68569 1.07631 0 0.793182 0.608985 0 0.834928 0.641037 0 0.876675 0.673088 0 0.918421 0.70514 0 0.960168 0.737192 0 1.00191 0.769244 0 1.04366 0.801296 0 1.08541 0.833347 0 1.12715 0.865399 0 1.1689 0.897451 0 1.21065 0.929503 0 1.25239 0.961555 0 1.29414 0.993607 0 1.33589 1.02566 0 1.37763 1.05771 0 1.41938 1.08976 0 1.46112 1.12181 0 1.50287 1.15387 0 1.54462 1.18592 0 1.58636 1.21797 0 0.737251 0.675619 0 0.776054 0.711178 0 0.814857 0.746737 0 0.853659 0.782295 0 0.892462 0.817854 0 0.931265 0.853413 0 0.970067 0.888972 0 1.00887 0.924531 0 1.04767 0.96009 0 1.08648 0.995649 0 1.12528 1.03121 0 1.16408 1.06677 0 1.20288 1.10233 0 1.24169 1.13788 0 1.28049 1.17344 0 1.31929 1.209 0 1.35809 1.24456 0 1.3969 1.28012 0 1.4357 1.31568 0 1.4745 1.35124 0 0.675619 0.737251 0 0.711178 0.776054 0 0.746737 0.814857 0 0.782295 0.853659 0 0.817854 0.892462 0 0.853413 0.931265 0 0.888972 0.970067 0 0.924531 1.00887 0 0.96009 1.04767 0 0.995649 1.08648 0 1.03121 1.12528 0 1.06677 1.16408 0 1.10233 1.20288 0 1.13788 1.24169 0 1.17344 1.28049 0 1.209 1.31929 0 1.24456 1.35809 0 1.28012 1.3969 0 1.31568 1.4357 0 1.35124 1.4745 0 0.608985 0.793182 0 0.641037 0.834928 0 0.673088 0.876675 0 0.70514 0.918421 0 0.737192 0.960168 0 0.769244 1.00191 0 0.801296 1.04366 0 0.833347 1.08541 0 0.865399 1.12715 0 0.897451 1.1689 0 0.929503 1.21065 0 0.961555 1.25239 0 0.993607 1.29414 0 1.02566 1.33589 0 1.05771 1.37763 0 1.08976 1.41938 0 1.12181 1.46112 0 1.15387 1.50287 0 1.18592 1.54462 0 1.21797 1.58636 0 0.538157 0.842845 0 0.566481 0.887205 0 0.594805 0.931565 0 0.623129 0.975926 0 0.651453 1.02029 0 0.679777 1.06465 0 0.708101 1.10901 0 0.736425 1.15337 0 0.764749 1.19773 0 0.793073 1.24209 0 0.821397 1.28645 0 0.849721 1.33081 0 0.878045 1.37517 0 0.906369 1.41953 0 0.934693 1.46389 0 0.963017 1.50825 0 0.991341 1.55261 0 1.01966 1.59697 0 1.04799 1.64133 0 1.07631 1.68569 0 0.464017 0.885826 0 0.488439 0.932449 0 0.512861 0.979071 0 0.537283 1.02569 0 0.561705 1.07232 0 0.586127 1.11894 0 0.610549 1.16556 0 0.634971 1.21218 0 0.659393 1.25881 0 0.683815 1.30543 0 0.708237 1.35205 0 0.732659 1.39867 0 0.757081 1.4453 0 0.781503 1.49192 0 0.805925 1.53854 0 0.830347 1.58516 0 0.854769 1.63179 0 0.879191 1.67841 0 0.903613 1.72503 0 0.928035 1.77165 0 0.38749 0.921874 0 0.407885 0.970393 0 0.428279 1.01891 0 0.448673 1.06743 0 0.469067 1.11595 0 0.489461 1.16447 0 0.509856 1.21299 0 0.53025 1.26151 0 0.550644 1.31003 0 0.571038 1.35855 0 0.591433 1.40707 0 0.611827 1.45559 0 0.632221 1.50411 0 0.652615 1.55263 0 0.67301 1.60115 0 0.693404 1.64967 0 0.713798 1.69819 0 0.734192 1.74671 0 0.754586 1.79523 0 0.774981 1.84375 0 0.309504 0.950898 0 0.325794 1.00095 0 0.342084 1.05099 0 0.358373 1.10104 0 0.374663 1.15109 0 0.390953 1.20113 0 0.407242 1.25118 0 0.423532 1.30123 0 0.439822 1.35128 0 0.456111 1.40132 0 0.472401 1.45137 0 0.488691 1.50142 0 0.504981 1.55147 0 0.52127 1.60151 0 0.53756 1.65156 0 0.55385 1.70161 0 0.570139 1.75165 0 0.586429 1.8017 0 0.602719 1.85175 0 0.619008 1.9018 0 0.230959 0.972963 0 0.243115 1.02417 0 0.255271 1.07538 0 0.267427 1.12659 0 0.279582 1.1778 0 0.291738 1.22901 0 0.303894 1.28022 0 0.31605 1.33142 0 0.328205 1.38263 0 0.340361 1.43384 0 0.352517 1.48505 0 0.364673 1.53626 0 0.376828 1.58747 0 0.388984 1.63868 0 0.40114 1.68988 0 0.413296 1.74109 0 0.425451 1.7923 0 0.437607 1.84351 0 0.449763 1.89472 0 0.461919 1.94593 0 0.1527 0.988273 0 0.160736 1.04029 0 0.168773 1.0923 0 0.17681 1.14432 0 0.184847 1.19633 0 0.192884 1.24834 0 0.20092 1.30036 0 0.208957 1.35237 0 0.216994 1.40439 0 0.225031 1.4564 0 0.233068 1.50842 0 0.241105 1.56043 0 0.249141 1.61244 0 0.257178 1.66446 0 0.265215 1.71647 0 0.273252 1.76849 0 0.281289 1.8205 0 0.289325 1.87252 0 0.297362 1.92453 0 0.305399 1.97655 0 0.0754898 0.997147 0 0.079463 1.04963 0 0.0834361 1.10211 0 0.0874093 1.15459 0 0.0913824 1.20707 0 0.0953555 1.25955 0 0.0993287 1.31203 0 0.103302 1.36452 0 0.107275 1.417 0 0.111248 1.46948 0 0.115221 1.52196 0 0.119194 1.57444 0 0.123168 1.62692 0 0.127141 1.6794 0 0.131114 1.73189 0 0.135087 1.78437 0 0.13906 1.83685 0 0.143033 1.88933 0 0.147006 1.94181 0 0.15098 1.99429 0 0 1 0 0 1.05263 0 0 1.10526 0 0 1.15789 0 0 1.21053 0 0 1.26316 0 0 1.31579 0 0 1.36842 0 0 1.42105 0 0 1.47368 0 0 1.52632 0 0 1.57895 0 0 1.63158 0 0 1.68421 0 0 1.73684 0 0 1.78947 0 0 1.84211 0 0 1.89474 0 0 1.94737 0 0 2 0 
</DataArray>
</Points> 
</Piece> 
</StructuredGrid> 
</VTKFile> 
