<?xml version="1.0"?> 
<VTKFile type="StructuredGrid" version="0.1"> 
<StructuredGrid WholeExtent="0 19 0 19 0 19"> 
<Piece Extent="0 19 0 19 0 19"> 
<PointData Scalars="u">
<DataArray type="Float32" Name="u" format="ascii" NumberOfComponents="1"> 
-0.00557202 -0.00651188 -0.00570963 -0.00316527 0.00112119 0.00695765 0.0101176 0.00887214 0.00322117 -0.00683528 -0.0193943 -0.0230387 -0.0158654 0.00212552 0.030934 0.0551631 0.0371759 -0.0247385 -0.13058 -0.280349 0.211132 0.24568 0.286638 0.334006 0.387784 0.447975 0.514633 0.587781 0.667417 0.753543 0.847706 0.959194 1.08955 1.23879 1.4069 1.58775 1.76638 1.9421 2.11492 2.28483 0.410873 0.477327 0.553997 0.640884 0.737987 0.84544 0.96617 1.10137 1.25105 1.41521 1.59496 1.79703 2.02254 2.27149 2.54388 2.83985 3.15973 3.50355 3.87129 4.26296 0.590109 0.684249 0.791436 0.91167 1.04495 1.19148 1.35548 1.53871 1.74116 1.96284 2.20435 2.46942 2.75867 3.07209 3.4097 3.77455 4.17416 4.60886 5.07867 5.58357 0.74536 0.862346 0.994133 1.14072 1.30211 1.47847 1.67368 1.88932 2.1254 2.38191 2.6589 2.95663 3.27514 3.61444 3.97453 4.3578 4.7701 5.21169 5.68258 6.18276 0.873144 1.00757 1.15741 1.32265 1.5033 1.69943 1.91283 2.14423 2.39362 2.66101 2.94579 3.2444 3.55621 3.88125 4.21951 4.56903 4.92502 5.28726 5.65577 6.03053 0.966169 1.11224 1.27362 1.45031 1.64231 1.84961 2.07176 2.30857 2.56006 2.82622 3.1059 3.39221 3.68399 3.98125 4.28399 4.58585 4.8713 5.13964 5.39087 5.625 1.02002 1.17158 1.33783 1.51878 1.71443 1.92468 2.14746 2.38191 2.62804 2.88585 3.15379 3.42263 3.69082 3.95836 4.22526 4.48234 4.70717 4.89873 5.05701 5.18202 1.03276 1.18337 1.34753 1.52526 1.71654 1.92124 2.13625 2.36032 2.59344 2.83562 3.08509 3.3313 3.57248 3.80865 4.0398 4.25559 4.43073 4.56407 4.65561 4.70536 1.0033 1.1464 1.30139 1.46826 1.64703 1.83752 2.03628 2.24188 2.45432 2.6736 2.89792 3.11649 3.32749 3.53094 3.72683 3.90536 4.04256 4.13735 4.18972 4.19967 0.934922 1.06463 1.20413 1.35343 1.51254 1.68129 1.85645 2.03666 2.22195 2.4123 2.60604 2.79313 2.97189 3.14233 3.30443 3.45043 3.5613 3.63617 3.67506 3.67795 0.848905 0.963473 1.08592 1.21625 1.35445 1.5004 1.65124 1.80579 1.96406 2.12604 2.29027 2.44795 2.5976 2.73923 2.87284 2.9927 3.08486 3.14866 3.18412 3.19123 0.749806 0.84835 0.953131 1.06415 1.1814 1.30478 1.43193 1.56186 1.6946 1.83013 1.96726 2.09881 2.22358 2.34158 2.4528 2.55338 2.63386 2.6938 2.7332 2.75208 0.639022 0.720851 0.807567 0.899168 0.995656 1.09695 1.20127 1.3079 1.41684 1.52808 1.64077 1.74969 1.854 1.95369 2.04876 2.13695 2.21275 2.27591 2.32643 2.36431 0.518155 0.582785 0.651247 0.723544 0.799674 0.879587 0.962188 1.04703 1.1341 1.22342 1.31449 1.40444 1.49277 1.57949 1.66461 1.74722 1.82518 1.89838 1.96683 2.03051 0.393786 0.44155 0.492316 0.546085 0.602855 0.662608 0.724909 0.789581 0.856622 0.926033 0.997702 1.07095 1.14568 1.22187 1.29953 1.37877 1.45986 1.5428 1.6276 1.71426 0.278996 0.311857 0.346929 0.384211 0.423704 0.465408 0.509313 0.555415 0.603715 0.654213 0.706993 0.762568 0.821021 0.882353 0.946563 1.01408 1.08593 1.16216 1.24278 1.32778 0.174891 0.194908 0.216382 0.239313 0.263701 0.289554 0.317053 0.346272 0.377211 0.40987 0.444362 0.481368 0.521001 0.563263 0.608152 0.655752 0.706271 0.759718 0.816092 0.875394 0.0817645 0.0909811 0.100944 0.111652 0.123106 0.135313 0.148421 0.162493 0.177527 0.193525 0.210469 0.228265 0.246897 0.266365 0.286669 0.30695 0.325108 0.341049 0.354771 0.366277 -0.000331877 7.37034e-005 0.000560233 0.00112771 0.00177614 0.00250162 0.00321822 0.00389081 0.00451938 0.00510393 0.00535509 0.00353658 -0.000640967 -0.00717756 -0.0160732 -0.029678 -0.0537366 -0.0885102 -0.133999 -0.190202 -0.00556427 -0.00650282 -0.00570169 -0.00316087 0.00111963 0.00694797 0.0101036 0.0088598 0.00321669 -0.00682577 -0.0193674 -0.0230066 -0.0158433 0.00212256 0.030891 0.0550864 0.0371242 -0.0247041 -0.130398 -0.279959 0.210838 0.245338 0.286239 0.333541 0.387244 0.447352 0.513917 0.586962 0.666488 0.752493 0.846525 0.957858 1.08804 1.23706 1.40494 1.58554 1.76392 1.9394 2.11198 2.28165 0.410301 0.476662 0.553226 0.639992 0.73696 0.844263 0.964824 1.09984 1.24931 1.41324 1.59274 1.79452 2.01972 2.26833 2.54034 2.8359 3.15534 3.49867 3.86591 4.25703 0.589288 0.683296 0.790334 0.910401 1.0435 1.18982 1.3536 1.53657 1.73874 1.9601 2.20128 2.46598 2.75483 3.06782 3.40495 3.7693 4.16835 4.60245 5.0716 5.5758 0.744323 0.861146 0.992749 1.13913 1.30029 1.47641 1.67135 1.88669 2.12244 2.37859 2.65519 2.95251 3.27058 3.60941 3.969 4.35174 4.76346 5.20444 5.67467 6.17416 0.87193 1.00617 1.1558 1.32081 1.50121 1.69707 1.91017 2.14125 2.39029 2.65731 2.94169 3.23988 3.55126 3.87585 4.21364 4.56267 4.91816 5.27991 5.6479 6.02214 0.964825 1.11069 1.27185 1.44829 1.64003 1.84704 2.06887 2.30536 2.5565 2.82229 3.10158 3.38749 3.67887 3.97571 4.27803 4.57947 4.86452 5.13249 5.38338 5.61717 1.0186 1.16995 1.33597 1.51667 1.71204 1.922 2.14447 2.3786 2.62439 2.88183 3.1494 3.41786 3.68568 3.95285 4.21938 4.47611 4.70062 4.89191 5.04998 5.17481 1.03132 1.18172 1.34566 1.52314 1.71415 1.91856 2.13328 2.35704 2.58984 2.83167 3.08079 3.32666 3.56751 3.80335 4.03418 4.24967 4.42456 4.55772 4.64914 4.69881 1.0019 1.1448 1.29958 1.46622 1.64474 1.83497 2.03345 2.23876 2.4509 2.66988 2.89389 3.11215 3.32286 3.52603 3.72165 3.89993 4.03694 4.1316 4.18389 4.19383 0.933622 1.06315 1.20245 1.35155 1.51043 1.67895 1.85386 2.03383 2.21886 2.40894 2.60242 2.78925 2.96776 3.13795 3.29984 3.44563 3.55635 3.63112 3.66995 3.67284 0.847724 0.962133 1.08441 1.21455 1.35256 1.49831 1.64894 1.80328 1.96132 2.12308 2.28708 2.44454 2.59399 2.73542 2.86884 2.98854 3.08057 3.14429 3.1797 3.18679 0.748763 0.84717 0.951805 1.06267 1.17976 1.30297 1.42993 1.55969 1.69224 1.82758 1.96452 2.09589 2.22049 2.33832 2.44939 2.54983 2.63019 2.69005 2.7294 2.74825 0.638133 0.719849 0.806443 0.897917 0.994271 1.09542 1.1996 1.30609 1.41487 1.52596 1.63848 1.74726 1.85142 1.95097 2.04591 2.13398 2.20967 2.27275 2.3232 2.36103 0.517435 0.581974 0.650341 0.722537 0.798561 0.878364 0.960849 1.04557 1.13253 1.22172 1.31266 1.40248 1.49069 1.57729 1.66229 1.74479 1.82264 1.89574 1.96409 2.02769 0.393238 0.440936 0.491631 0.545325 0.602016 0.661686 0.7239 0.788481 0.855429 0.924744 0.996313 1.06946 1.14408 1.22017 1.29772 1.37685 1.45783 1.54066 1.62534 1.71187 0.278608 0.311423 0.346446 0.383676 0.423114 0.46476 0.508603 0.554642 0.602874 0.653302 0.706009 0.761506 0.819877 0.881123 0.945244 1.01266 1.08441 1.16054 1.24105 1.32593 0.174648 0.194637 0.216081 0.23898 0.263334 0.289151 0.316612 0.34579 0.376686 0.409299 0.443743 0.480697 0.520276 0.562478 0.607305 0.654839 0.705288 0.758661 0.814957 0.874177 0.0816508 0.0908544 0.100803 0.111496 0.122934 0.135124 0.148215 0.162267 0.17728 0.193255 0.210176 0.227948 0.246554 0.265995 0.286271 0.306524 0.324658 0.340576 0.354279 0.365767 -0.000331415 7.34379e-005 0.000559238 0.00112598 0.00177368 0.00249841 0.00321425 0.00388605 0.00451379 0.00509749 0.00534824 0.00353255 -0.000638467 -0.00716482 -0.0160465 -0.0296308 -0.0536556 -0.0883817 -0.133809 -0.189938 -0.00554119 -0.00647585 -0.00567804 -0.00314776 0.00111499 0.00691916 0.0100617 0.00882306 0.00320335 -0.00679746 -0.019287 -0.0229112 -0.0157776 0.00211376 0.0307629 0.054858 0.0369702 -0.0246016 -0.129858 -0.278798 0.209964 0.24432 0.28505 0.332156 0.385636 0.445494 0.511783 0.584525 0.66372 0.749369 0.84301 0.953881 1.08352 1.23193 1.39911 1.57896 1.7566 1.93136 2.10322 2.27219 0.408599 0.474685 0.55093 0.637335 0.7339 0.840757 0.960818 1.09527 1.24412 1.40737 1.58612 1.78707 2.01134 2.25891 2.5298 2.82413 3.14225 3.48416 3.84987 4.23938 0.586844 0.680461 0.787054 0.906622 1.03917 1.18488 1.34798 1.53019 1.73152 1.95196 2.19214 2.45574 2.74339 3.05508 3.39082 3.75366 4.15106 4.58336 5.05057 5.55268 0.741236 0.857573 0.988629 1.1344 1.2949 1.47028 1.66441 1.87886 2.11363 2.36872 2.64417 2.94025 3.25701 3.59443 3.95253 4.33368 4.7437 5.18285 5.65114 6.14855 0.868313 1.002 1.151 1.31533 1.49498 1.69003 1.90224 2.13236 2.38037 2.64628 2.92949 3.22643 3.53653 3.85977 4.19615 4.54374 4.89776 5.25801 5.62447 5.99716 0.960823 1.10608 1.26657 1.44228 1.63322 1.83937 2.06029 2.29579 2.54589 2.81058 3.08871 3.37343 3.6636 3.95922 4.26028 4.56047 4.84434 5.1112 5.36105 5.59387 1.01438 1.16509 1.33042 1.51037 1.70494 1.91403 2.13557 2.36873 2.6135 2.86988 3.13633 3.40368 3.67039 3.93645 4.20188 4.45754 4.68112 4.87162 5.02903 5.15335 1.02705 1.17682 1.34008 1.51682 1.70704 1.9106 2.12443 2.34726 2.57909 2.81993 3.06801 3.31286 3.55271 3.78758 4.01745 4.23204 4.40621 4.53882 4.62985 4.67933 0.997748 1.14005 1.29418 1.46014 1.63791 1.82736 2.02501 2.22947 2.44074 2.65881 2.88189 3.09924 3.30908 3.5114 3.70621 3.88375 4.0202 4.11446 4.16654 4.17644 0.929749 1.05874 1.19747 1.34594 1.50417 1.67199 1.84617 2.0254 2.20966 2.39895 2.59162 2.77768 2.95545 3.12494 3.28615 3.43134 3.54159 3.61606 3.65473 3.6576 0.844208 0.958143 1.07991 1.20952 1.34695 1.4921 1.6421 1.7958 1.95319 2.11428 2.2776 2.4344 2.58323 2.72407 2.85694 2.97615 3.06779 3.13125 3.16651 3.17358 0.745657 0.843657 0.947857 1.05826 1.17486 1.29756 1.424 1.55322 1.68522 1.82 1.95637 2.08719 2.21128 2.32862 2.43923 2.53925 2.61928 2.67889 2.71808 2.73685 0.635487 0.716863 0.803098 0.894193 0.990147 1.09088 1.19463 1.30067 1.409 1.51963 1.63169 1.74001 1.84374 1.94288 2.03742 2.12512 2.20051 2.26332 2.31356 2.35123 0.515289 0.57956 0.647644 0.71954 0.795249 0.87472 0.956864 1.04123 1.12783 1.21665 1.30722 1.39666 1.48451 1.57075 1.65539 1.73755 1.81508 1.88788 1.95594 2.01928 0.391607 0.439107 0.489592 0.543063 0.599519 0.658941 0.720897 0.78521 0.85188 0.920907 0.992179 1.06503 1.13933 1.2151 1.29234 1.37114 1.45178 1.53426 1.61859 1.70477 0.277453 0.310131 0.345009 0.382084 0.421359 0.462831 0.506493 0.55234 0.600372 0.65059 0.703079 0.758345 0.816474 0.877467 0.941322 1.00846 1.07991 1.15572 1.2359 1.32043 0.173923 0.193829 0.215184 0.237988 0.262241 0.28795 0.315297 0.344354 0.375121 0.407599 0.4419 0.478701 0.518116 0.560143 0.604784 0.652121 0.702361 0.755513 0.811576 0.870551 0.0813122 0.0904773 0.100384 0.111033 0.122424 0.134563 0.147599 0.161592 0.176544 0.192452 0.209303 0.227001 0.24553 0.264891 0.285083 0.305253 0.323311 0.339163 0.35281 0.36425 -0.000330041 7.28419e-005 0.000556412 0.00112067 0.00176562 0.00248736 0.00320025 0.00386927 0.0044944 0.00507566 0.00532535 0.00351733 -0.000636082 -0.00713489 -0.0159791 -0.0295064 -0.0534313 -0.0880135 -0.133253 -0.18915 -0.00550279 -0.00643097 -0.00563868 -0.00312594 0.00110726 0.0068712 0.00999192 0.00876191 0.00318115 -0.00675035 -0.0191533 -0.0227524 -0.0156682 0.00209911 0.0305496 0.0544777 0.036714 -0.0244311 -0.128958 -0.276865 0.208508 0.242625 0.283073 0.329851 0.38296 0.442402 0.508231 0.580468 0.659114 0.744169 0.837161 0.947263 1.076 1.22338 1.3894 1.56801 1.74442 1.91797 2.08864 2.25644 0.405767 0.471393 0.547108 0.632913 0.728808 0.834923 0.954151 1.08767 1.23549 1.3976 1.57512 1.77468 1.99739 2.24324 2.51225 2.80455 3.12046 3.46 3.82318 4.20999 0.582777 0.675743 0.781595 0.900333 1.03196 1.17666 1.33862 1.51957 1.71951 1.93842 2.17693 2.43871 2.72436 3.0339 3.36731 3.72763 4.12227 4.55158 5.01556 5.51419 0.736098 0.851628 0.981773 1.12654 1.28591 1.46008 1.65286 1.86583 2.09897 2.35229 2.62583 2.91986 3.23442 3.56951 3.92512 4.30363 4.71081 5.14692 5.61196 6.10594 0.862295 0.995051 1.14302 1.30621 1.48461 1.6783 1.88905 2.11757 2.36386 2.62793 2.90917 3.20406 3.512 3.833 4.16706 4.51223 4.8638 5.22155 5.58548 5.95559 0.954164 1.09842 1.25779 1.43228 1.6219 1.82662 2.046 2.27987 2.52824 2.79109 3.06729 3.35004 3.6382 3.93177 4.23074 4.52885 4.81076 5.07577 5.32389 5.5551 1.00735 1.15702 1.3212 1.4999 1.69312 1.90076 2.12077 2.35231 2.59538 2.84998 3.11459 3.38008 3.64494 3.90916 4.17275 4.42663 4.64867 4.83785 4.99417 5.11763 1.01993 1.16866 1.33079 1.5063 1.69521 1.89736 2.1097 2.33099 2.56121 2.80038 3.04675 3.28989 3.52809 3.76132 3.9896 4.2027 4.37567 4.50735 4.59776 4.64689 0.990833 1.13215 1.28521 1.45002 1.62656 1.81469 2.01098 2.21402 2.42382 2.64038 2.86191 3.07776 3.28614 3.48706 3.68052 3.85683 3.99233 4.08594 4.13766 4.14749 0.923305 1.0514 1.18917 1.33662 1.49374 1.6604 1.83338 2.01136 2.19434 2.38233 2.57366 2.75842 2.93496 3.10328 3.26337 3.40755 3.51704 3.59099 3.62939 3.63225 0.838357 0.951502 1.07243 1.20113 1.33762 1.48176 1.63072 1.78335 1.93965 2.09962 2.26181 2.41753 2.56532 2.70519 2.83714 2.95552 3.04653 3.10954 3.14456 3.15158 0.740489 0.837809 0.941288 1.05093 1.16672 1.28857 1.41413 1.54246 1.67354 1.80739 1.94281 2.07273 2.19595 2.31248 2.42233 2.52165 2.60113 2.66032 2.69924 2.71788 0.631082 0.711894 0.797532 0.887996 0.983285 1.08332 1.18635 1.29165 1.39924 1.5091 1.62038 1.72795 1.83096 1.92941 2.0233 2.11039 2.18525 2.24763 2.29752 2.33494 0.511717 0.575543 0.643155 0.714553 0.789737 0.868657 0.950232 1.03402 1.12001 1.20822 1.29816 1.38698 1.47422 1.55986 1.64392 1.72551 1.8025 1.87479 1.94238 2.00528 0.388893 0.436063 0.486198 0.539298 0.595363 0.654373 0.715899 0.779766 0.845974 0.914522 0.9853 1.05764 1.13143 1.20668 1.28338 1.36164 1.44172 1.52363 1.60737 1.69296 0.275529 0.307981 0.342617 0.379435 0.418437 0.459621 0.50298 0.548509 0.596209 0.646078 0.698203 0.753086 0.810813 0.871382 0.934795 1.00147 1.07243 1.14771 1.22733 1.31128 0.172718 0.192485 0.213692 0.236337 0.260421 0.285953 0.31311 0.341965 0.372519 0.404771 0.438834 0.475381 0.514522 0.556258 0.600589 0.647599 0.697491 0.750275 0.80595 0.864517 0.0807486 0.0898497 0.0996876 0.110262 0.121573 0.133628 0.146574 0.16047 0.175317 0.191116 0.20785 0.225425 0.243826 0.263052 0.283105 0.303134 0.321068 0.336811 0.350363 0.361725 -0.000327753 7.19153e-005 0.000551757 0.00111177 0.00175196 0.00246846 0.00317622 0.00384048 0.00446121 0.00503843 0.00528642 0.00349091 -0.000633813 -0.00708775 -0.0158709 -0.0293047 -0.0530636 -0.0874056 -0.132331 -0.187839 -0.00544905 -0.00636817 -0.00558362 -0.00309542 0.00109645 0.0068041 0.00989435 0.00867635 0.00315008 -0.00668443 -0.0189663 -0.0225302 -0.0155152 0.00207861 0.0302513 0.0539458 0.0363555 -0.0241925 -0.127698 -0.274162 0.206472 0.240255 0.280307 0.326627 0.379216 0.438077 0.503261 0.574793 0.65267 0.736894 0.828977 0.938004 1.06549 1.21143 1.37583 1.55269 1.72738 1.89923 2.06824 2.23441 0.401805 0.466788 0.541762 0.626727 0.721683 0.826761 0.944822 1.07704 1.22341 1.38394 1.55972 1.75733 1.97787 2.22132 2.4877 2.77715 3.08997 3.42621 3.78584 4.16888 0.577086 0.669142 0.773958 0.891534 1.02187 1.16515 1.32554 1.50472 1.7027 1.91948 2.15566 2.41488 2.69774 3.00425 3.33441 3.69121 4.082 4.50713 4.96657 5.46035 0.72891 0.843309 0.972181 1.11553 1.27335 1.44581 1.63671 1.84759 2.07846 2.3293 2.60017 2.89133 3.20282 3.53463 3.88677 4.26159 4.66479 5.09665 5.55715 6.04631 0.853875 0.985332 1.13186 1.29345 1.4701 1.66191 1.87059 2.09688 2.34077 2.60225 2.88075 3.17276 3.47769 3.79556 4.12635 4.46816 4.81629 5.17055 5.53094 5.89744 0.944846 1.08769 1.2455 1.41829 1.60606 1.80877 2.02601 2.2576 2.50354 2.76382 3.03733 3.31732 3.60266 3.89336 4.18941 4.48461 4.76377 5.0262 5.27189 5.50086 0.997512 1.14572 1.3083 1.48525 1.67658 1.88219 2.10005 2.32933 2.57003 2.82214 3.08417 3.34707 3.60934 3.87098 4.13199 4.3834 4.60327 4.7906 4.9454 5.06766 1.00997 1.15725 1.31779 1.49159 1.67865 1.87883 2.0891 2.30822 2.5362 2.77303 3.01699 3.25776 3.49363 3.72458 3.95063 4.16165 4.33293 4.46333 4.55286 4.60152 0.981157 1.1211 1.27266 1.43585 1.61067 1.79697 1.99134 2.1924 2.40015 2.61459 2.83396 3.0477 3.25405 3.45301 3.64457 3.81916 3.95334 4.04603 4.09725 4.10699 0.914289 1.04113 1.17755 1.32356 1.47916 1.64419 1.81548 1.99172 2.17291 2.35906 2.54853 2.73149 2.9063 3.07297 3.2315 3.37427 3.48269 3.55592 3.59395 3.59678 0.83017 0.94221 1.06195 1.1894 1.32456 1.46729 1.6148 1.76594 1.92071 2.07912 2.23973 2.39392 2.54027 2.67878 2.80943 2.92665 3.01677 3.07917 3.11385 3.12081 0.733258 0.829628 0.932096 1.04066 1.15533 1.27599 1.40033 1.5274 1.6572 1.78974 1.92385 2.05249 2.17451 2.2899 2.39867 2.49703 2.57572 2.63434 2.67288 2.69134 0.62492 0.704943 0.789744 0.879325 0.973683 1.07274 1.17476 1.27904 1.38557 1.49436 1.60456 1.71108 1.81308 1.91057 2.00354 2.08978 2.16391 2.22568 2.27509 2.31214 0.50672 0.569923 0.636874 0.707575 0.782025 0.860175 0.940953 1.02392 1.10907 1.19642 1.28548 1.37344 1.45982 1.54463 1.62786 1.70866 1.78489 1.85648 1.92342 1.9857 0.385095 0.431804 0.48145 0.534031 0.589548 0.647982 0.708907 0.77215 0.837711 0.90559 0.975677 1.04731 1.12038 1.1949 1.27084 1.34834 1.42764 1.50875 1.59168 1.67642 0.272839 0.304973 0.33927 0.375728 0.414349 0.455131 0.498066 0.54315 0.590384 0.639766 0.691382 0.745729 0.802892 0.86287 0.925664 0.991687 1.06195 1.1365 1.21534 1.29847 0.171031 0.190605 0.211604 0.234028 0.257876 0.283158 0.310049 0.338622 0.368878 0.400815 0.434545 0.470735 0.509494 0.550822 0.594721 0.641272 0.690678 0.742947 0.798079 0.856075 0.0799601 0.0889717 0.098713 0.109184 0.120384 0.13232 0.145139 0.158899 0.173602 0.189246 0.205816 0.22322 0.241441 0.260479 0.280335 0.300169 0.317928 0.333518 0.34694 0.358193 -0.000324553 7.06581e-005 0.000545272 0.00109929 0.00173271 0.00244171 0.00314217 0.00379967 0.00441421 0.0049858 0.00523146 0.00345329 -0.000631659 -0.00702341 -0.0157219 -0.0290256 -0.0525525 -0.0865579 -0.131042 -0.186005 -0.00538002 -0.00628749 -0.00551288 -0.0030562 0.00108256 0.0067179 0.009769 0.00856642 0.00311018 -0.00659975 -0.018726 -0.0222448 -0.0153187 0.00205228 0.0298681 0.0532623 0.0358949 -0.023886 -0.12608 -0.270688 0.203856 0.23721 0.276752 0.322484 0.374406 0.432519 0.496877 0.567501 0.644391 0.727547 0.818463 0.926109 1.05198 1.19607 1.35838 1.53301 1.70549 1.87516 2.04203 2.2061 0.396715 0.460872 0.534893 0.618779 0.71253 0.816274 0.932838 1.06338 1.2079 1.36639 1.53994 1.73505 1.95279 2.19316 2.45617 2.74194 3.05081 3.38279 3.73787 4.11607 0.569775 0.660661 0.764146 0.88023 1.00891 1.15038 1.30873 1.48564 1.68111 1.89514 2.12832 2.38426 2.66354 2.96617 3.29214 3.64442 4.03027 4.45001 4.90364 5.39117 0.719676 0.832622 0.959858 1.10138 1.2572 1.42748 1.61596 1.82417 2.0521 2.29977 2.56721 2.85468 3.16222 3.48983 3.83751 4.20757 4.60567 5.03206 5.48674 5.96971 0.843057 0.972846 1.11751 1.27705 1.45147 1.64084 1.84688 2.0703 2.31109 2.56926 2.84423 3.13254 3.43362 3.74745 4.07405 4.41153 4.75526 5.10503 5.46086 5.82272 0.932876 1.07391 1.22972 1.40032 1.5857 1.78585 2.00034 2.22899 2.47181 2.7288 2.99884 3.27528 3.55701 3.84402 4.13632 4.42778 4.7034 4.96251 5.20509 5.43117 0.984875 1.1312 1.29172 1.46643 1.65533 1.85834 2.07344 2.29981 2.53746 2.78638 3.04509 3.30466 3.56361 3.82193 4.07963 4.32785 4.54493 4.7299 4.88274 5.00346 0.997174 1.14259 1.30109 1.47269 1.65738 1.85502 2.06263 2.27898 2.50406 2.73789 2.97877 3.21649 3.44936 3.67739 3.90057 4.10892 4.27802 4.40678 4.49517 4.54322 0.968727 1.10689 1.25654 1.41766 1.59027 1.7742 1.96611 2.16462 2.36974 2.58147 2.79806 3.00909 3.21282 3.40926 3.59839 3.77077 3.90324 3.99476 4.04534 4.05496 0.902706 1.02794 1.16264 1.30679 1.46042 1.62336 1.79248 1.96649 2.14539 2.32918 2.51624 2.69688 2.86948 3.03404 3.19055 3.33152 3.43856 3.51086 3.54841 3.55122 0.819653 0.930273 1.0485 1.17434 1.30778 1.4487 1.59434 1.74357 1.89638 2.05278 2.21136 2.3636 2.50809 2.64484 2.77384 2.88957 2.97855 3.04016 3.0744 3.08127 0.723969 0.819118 0.920288 1.02748 1.14069 1.25982 1.38259 1.50805 1.63621 1.76707 1.89947 2.02649 2.14696 2.26089 2.36828 2.46539 2.54309 2.60096 2.63902 2.65724 0.617003 0.696012 0.779739 0.868185 0.961349 1.05915 1.15988 1.26284 1.36802 1.47543 1.58423 1.6894 1.79011 1.88636 1.97815 2.0633 2.13649 2.19748 2.24626 2.28284 0.500301 0.562702 0.628806 0.69861 0.772117 0.849277 0.929032 1.01095 1.09502 1.18126 1.2692 1.35604 1.44133 1.52506 1.60724 1.68701 1.76228 1.83296 1.89905 1.96054 0.380217 0.426333 0.475349 0.527264 0.582077 0.639771 0.699924 0.762366 0.827096 0.894115 0.963313 1.03404 1.10619 1.17975 1.25474 1.33125 1.40955 1.48963 1.57151 1.65519 0.269382 0.301109 0.33497 0.370967 0.409097 0.449362 0.491753 0.536266 0.582901 0.631657 0.682618 0.736277 0.792716 0.851935 0.913934 0.979122 1.0485 1.12211 1.19995 1.28202 0.168865 0.18819 0.208922 0.231061 0.254606 0.279567 0.306117 0.334328 0.3642 0.395732 0.429035 0.464766 0.503034 0.543839 0.587182 0.633144 0.681925 0.733532 0.787967 0.84523 0.0789471 0.0878438 0.0974608 0.107798 0.118856 0.13064 0.143296 0.156882 0.171397 0.186843 0.203203 0.220386 0.238376 0.257173 0.276777 0.29636 0.313894 0.329288 0.342542 0.353655 -0.000320441 6.90719e-005 0.000536969 0.00108325 0.00170791 0.00240719 0.00309819 0.00374699 0.00435358 0.00491798 0.00516069 0.00340476 -0.000629306 -0.00694151 -0.0155318 -0.0286688 -0.0518977 -0.0854706 -0.129387 -0.183648 -0.00529631 -0.00618966 -0.00542711 -0.00300865 0.00106572 0.00661338 0.00961701 0.00843314 0.00306178 -0.00649706 -0.0184347 -0.0218987 -0.0150803 0.00202034 0.0294034 0.0524336 0.0353364 -0.0235144 -0.124119 -0.266477 0.200685 0.233517 0.272443 0.317461 0.368573 0.42578 0.489135 0.558659 0.634351 0.716212 0.805714 0.911684 1.03559 1.17745 1.33724 1.50915 1.67894 1.84598 2.01026 2.17178 0.390542 0.453698 0.526564 0.609142 0.701431 0.803558 0.918306 1.04681 1.18908 1.34511 1.51596 1.70803 1.92238 2.15901 2.41793 2.69926 3.00333 3.33014 3.67971 4.05203 0.56091 0.650378 0.752249 0.866523 0.993199 1.13246 1.28834 1.4625 1.65492 1.86562 2.09518 2.34713 2.62207 2.91999 3.24089 3.58769 3.96754 4.38076 4.82734 5.30729 0.708478 0.819663 0.944916 1.08424 1.23763 1.40525 1.59079 1.79576 2.02015 2.26396 2.52724 2.81023 3.11299 3.4355 3.77777 4.14208 4.53399 4.95375 5.40136 5.87683 0.82994 0.957706 1.10012 1.25717 1.42887 1.61529 1.81813 2.03807 2.27512 2.52927 2.79996 3.08378 3.38017 3.68913 4.01064 4.34287 4.68125 5.02559 5.37588 5.73213 0.918362 1.05719 1.21058 1.37852 1.56102 1.75805 1.9692 2.1943 2.43334 2.68633 2.95217 3.22431 3.50165 3.7842 4.07195 4.35888 4.63021 4.88529 5.1241 5.34666 0.969551 1.1136 1.27162 1.44361 1.62957 1.82942 2.04118 2.26403 2.49798 2.74302 2.99771 3.25324 3.50816 3.76246 4.01615 4.26051 4.47421 4.6563 4.80676 4.92561 0.981659 1.12481 1.28085 1.44978 1.63159 1.82616 2.03054 2.24352 2.46511 2.6953 2.93242 3.16644 3.3957 3.62018 3.83988 4.04499 4.21146 4.33821 4.42523 4.47253 0.953655 1.08967 1.23699 1.39561 1.56553 1.7466 1.93552 2.13095 2.33288 2.54131 2.75453 2.96228 3.16284 3.35622 3.54241 3.7121 3.84251 3.93261 3.9824 3.99187 0.888661 1.01195 1.14455 1.28646 1.4377 1.5981 1.76459 1.9359 2.11201 2.29295 2.4771 2.65493 2.82484 2.98684 3.14092 3.27968 3.38506 3.45624 3.4932 3.49596 0.8069 0.9158 1.03219 1.15607 1.28743 1.42617 1.56954 1.71645 1.86689 2.02086 2.17696 2.32683 2.46908 2.60369 2.73068 2.84461 2.9322 2.99285 3.02656 3.03333 0.712705 0.806374 0.905972 1.0115 1.12295 1.24023 1.36108 1.4846 1.61076 1.73959 1.86993 1.99497 2.11357 2.22572 2.33144 2.42703 2.50352 2.56049 2.59795 2.6159 0.607403 0.685184 0.767609 0.85468 0.946395 1.04268 1.14184 1.2432 1.34674 1.45248 1.55959 1.66312 1.76227 1.85702 1.94738 2.0312 2.10325 2.16329 2.21131 2.24732 0.492516 0.553948 0.619023 0.687742 0.760105 0.836065 0.914579 0.99522 1.07799 1.16288 1.24945 1.33494 1.4189 1.50133 1.58223 1.66076 1.73486 1.80444 1.8695 1.93004 0.374301 0.4197 0.467953 0.519059 0.57302 0.629815 0.689033 0.750503 0.814225 0.8802 0.948321 1.01795 1.08897 1.16139 1.23522 1.31054 1.38761 1.46646 1.54706 1.62943 0.265191 0.296423 0.329757 0.365193 0.40273 0.442368 0.484098 0.527918 0.573826 0.621824 0.671991 0.724815 0.780375 0.838673 0.899708 0.963883 1.03218 1.10464 1.18128 1.26208 0.166237 0.185261 0.205669 0.227463 0.250641 0.275213 0.301349 0.329121 0.358527 0.389569 0.422353 0.457528 0.4952 0.535371 0.578041 0.623288 0.67131 0.722116 0.775706 0.832079 0.0777187 0.0864761 0.0959426 0.106118 0.117003 0.128604 0.141062 0.154436 0.168725 0.183931 0.200037 0.216953 0.234663 0.253167 0.272467 0.291744 0.309006 0.324162 0.33721 0.348153 -0.000315455 6.71913e-005 0.000527088 0.00106423 0.00167863 0.00236658 0.00304662 0.00368545 0.00428306 0.00483945 0.00507938 0.00335137 -0.000619815 -0.00683418 -0.0152917 -0.0282253 -0.0510932 -0.0841434 -0.127376 -0.180791 -0.00519819 -0.00607499 -0.00532656 -0.00295291 0.00104597 0.00649085 0.00943883 0.0082769 0.00300506 -0.00637669 -0.0180931 -0.021493 -0.0148009 0.00198291 0.0288586 0.0514622 0.0346817 -0.0230787 -0.121819 -0.26154 0.196967 0.229188 0.26739 0.311572 0.361735 0.41788 0.480059 0.548293 0.622581 0.702924 0.790767 0.894773 1.01639 1.15561 1.31245 1.48117 1.64783 1.81177 1.97301 2.13154 0.383307 0.445288 0.516801 0.597845 0.68842 0.788651 0.901269 1.02739 1.16702 1.32016 1.48784 1.67635 1.88673 2.11898 2.37311 2.64923 2.94767 3.26843 3.61153 3.97696 0.550518 0.638324 0.738303 0.850455 0.97478 1.11146 1.26445 1.43537 1.62423 1.83102 2.05633 2.30361 2.57345 2.86585 3.18081 3.5212 3.89401 4.29958 4.7379 5.20896 0.695353 0.804473 0.927401 1.06414 1.21468 1.3792 1.5613 1.76246 1.98269 2.22198 2.48038 2.75813 3.05528 3.37182 3.70776 4.06532 4.44997 4.86196 5.30129 5.76795 0.814564 0.93996 1.07973 1.23387 1.40239 1.58535 1.78443 2.00029 2.23295 2.48239 2.74806 3.02663 3.31753 3.62076 3.93632 4.2624 4.59452 4.93248 5.27628 5.62593 0.901347 1.03761 1.18815 1.35298 1.53209 1.72548 1.93271 2.15364 2.38825 2.63655 2.89747 3.16456 3.43677 3.71408 3.99651 4.27812 4.54443 4.79478 5.02917 5.24761 0.951588 1.09297 1.24806 1.41686 1.59938 1.79553 2.00336 2.22208 2.4517 2.69221 2.94217 3.19297 3.44317 3.69276 3.94175 4.18158 4.39132 4.57004 4.71771 4.83435 0.963472 1.10397 1.25712 1.42292 1.60137 1.79233 1.99292 2.20196 2.41944 2.64537 2.8781 3.10779 3.3328 3.55312 3.76875 3.97006 4.13344 4.25784 4.34325 4.38967 0.935986 1.06948 1.21407 1.36976 1.53653 1.71425 1.89967 2.09148 2.28967 2.49424 2.70351 2.90741 3.10426 3.29405 3.4768 3.64334 3.77133 3.85976 3.90862 3.91791 0.872197 0.993201 1.12335 1.26264 1.41107 1.56851 1.73192 1.90005 2.0729 2.25048 2.43123 2.60577 2.77253 2.93152 3.08274 3.21894 3.32236 3.39221 3.42849 3.43119 0.79195 0.898836 1.01307 1.13466 1.26359 1.39976 1.54048 1.68467 1.83232 1.98343 2.13665 2.28374 2.42335 2.55548 2.68011 2.79193 2.87789 2.93742 2.97049 2.97713 0.6995 0.791437 0.889192 0.992765 1.10216 1.21726 1.33588 1.45711 1.58094 1.70738 1.8353 1.95803 2.07443 2.1845 2.28826 2.38208 2.45715 2.51306 2.54983 2.56744 0.596149 0.672492 0.753392 0.838851 0.928869 1.02337 1.1207 1.22018 1.3218 1.42558 1.5307 1.63232 1.72963 1.82262 1.91131 1.99358 2.06429 2.12321 2.17035 2.20569 0.483392 0.543686 0.607557 0.675004 0.746027 0.82058 0.89764 0.976787 1.05802 1.14134 1.2263 1.31021 1.39262 1.47352 1.55292 1.62999 1.70272 1.77101 1.83486 1.89428 0.367366 0.411924 0.459283 0.509443 0.562403 0.618146 0.676266 0.736596 0.799137 0.863889 0.930747 0.999082 1.06879 1.13987 1.21232 1.28625 1.3619 1.43928 1.5184 1.59924 0.260278 0.290931 0.323647 0.358425 0.395265 0.434168 0.475124 0.518131 0.563187 0.610295 0.659532 0.711376 0.765907 0.823125 0.88303 0.946016 1.01305 1.08417 1.15939 1.23869 0.163157 0.181827 0.201857 0.223245 0.245994 0.270109 0.29576 0.323016 0.351877 0.382342 0.414519 0.449042 0.486017 0.525444 0.567323 0.611734 0.658868 0.708734 0.761332 0.816663 0.0762789 0.0848728 0.0941629 0.104149 0.114832 0.126216 0.138443 0.151569 0.165594 0.180518 0.196327 0.21293 0.230312 0.248475 0.267418 0.286339 0.303282 0.318157 0.330964 0.341703 -0.000309611 6.50303e-005 0.000515729 0.00104249 0.0016453 0.00232055 0.00298843 0.0036163 0.00420417 0.00475203 0.00498965 0.0032956 -0.000600348 -0.00669819 -0.0149979 -0.0276914 -0.0501363 -0.0825763 -0.125011 -0.177441 -0.00508565 -0.00594346 -0.00521124 -0.00288898 0.00102333 0.00635033 0.00923448 0.00809771 0.00294 -0.00623864 -0.0177014 -0.0210276 -0.0144805 0.00193998 0.0282338 0.050348 0.0339309 -0.0225791 -0.119182 -0.255877 0.192702 0.224223 0.261595 0.304818 0.353892 0.408818 0.469649 0.536403 0.609081 0.687683 0.773622 0.875377 0.99436 1.13057 1.28401 1.44909 1.61214 1.77254 1.93029 2.08539 0.375008 0.435643 0.505603 0.584887 0.673497 0.771553 0.881728 1.00512 1.14172 1.29154 1.45559 1.64002 1.84585 2.07307 2.3217 2.59185 2.88383 3.19766 3.53334 3.89085 0.538599 0.624499 0.722308 0.832026 0.953654 1.08737 1.23704 1.40426 1.58903 1.79134 2.01176 2.25369 2.51769 2.80377 3.11192 3.44494 3.80969 4.20648 4.63532 5.09619 0.680298 0.787051 0.907313 1.04108 1.18836 1.34931 1.52747 1.72427 1.93973 2.17384 2.42664 2.69838 2.9891 3.29879 3.62746 3.97729 4.35362 4.75669 5.18651 5.64308 0.796928 0.919607 1.05635 1.20715 1.37202 1.55102 1.74578 1.95697 2.18458 2.42862 2.68855 2.96108 3.24568 3.54235 3.85109 4.17011 4.49504 4.82569 5.16205 5.50413 0.881833 1.01514 1.16243 1.32369 1.49892 1.68811 1.89086 2.107 2.33654 2.57946 2.83473 3.09605 3.36236 3.63367 3.90999 4.1855 4.44605 4.69098 4.92029 5.134 0.930987 1.06931 1.22104 1.38619 1.56476 1.75666 1.95999 2.17398 2.39863 2.63393 2.87848 3.12385 3.36863 3.61282 3.85643 4.09106 4.29627 4.47111 4.61558 4.72969 0.942612 1.08007 1.22991 1.39212 1.56671 1.75354 1.94979 2.1543 2.36708 2.58812 2.81581 3.04053 3.26066 3.47622 3.68718 3.88413 4.04398 4.16568 4.24923 4.29463 0.915722 1.04633 1.1878 1.34011 1.50328 1.67715 1.85856 2.04622 2.24012 2.44027 2.64501 2.8445 3.03708 3.22277 3.40155 3.56449 3.68971 3.77622 3.82401 3.83309 0.853314 0.971703 1.09904 1.23531 1.38054 1.53457 1.69444 1.85894 2.02805 2.20179 2.37862 2.54938 2.71254 2.86809 3.01604 3.14928 3.25046 3.31879 3.35428 3.35691 0.774805 0.879381 0.991148 1.11011 1.23625 1.36947 1.50715 1.64822 1.79268 1.94052 2.09042 2.23433 2.37092 2.50018 2.62212 2.73151 2.81561 2.87384 2.90619 2.91267 0.684356 0.774307 0.869949 0.971283 1.07831 1.19093 1.30698 1.42558 1.54673 1.67044 1.7956 1.91566 2.02954 2.13723 2.23874 2.33053 2.40397 2.45867 2.49463 2.51185 0.583243 0.657936 0.737088 0.820699 0.90877 1.00123 1.09645 1.19378 1.2932 1.39474 1.49758 1.597 1.6922 1.78318 1.86994 1.95043 2.01961 2.07726 2.12336 2.15794 0.472926 0.531917 0.594407 0.660395 0.729882 0.802822 0.878213 0.955647 1.03512 1.11664 1.19976 1.28185 1.36247 1.44162 1.5193 1.5947 1.66586 1.73267 1.79514 1.85327 0.359413 0.403007 0.44934 0.498414 0.550228 0.6047