<?xml version="1.0"?> 
<VTKFile type="StructuredGrid" version="0.1"> 
<StructuredGrid WholeExtent="0 19 0 19 0 19"> 
<Piece Extent="0 19 0 19 0 19"> 
<PointData Scalars="u">
<DataArray type="Float32" Name="u" format="ascii" NumberOfComponents="1"> 
-0.00662642 -0.00815823 -0.00734177 -0.00417703 0.00133598 0.00894489 0.0130975 0.0115224 0.00421971 -0.00881068 -0.0251006 -0.029841 -0.0205637 0.0027312 0.0400438 0.0714319 0.0481481 -0.0320234 -0.169083 -0.36303 0.213759 0.248257 0.289573 0.337708 0.392662 0.454418 0.52261 0.597088 0.677852 0.764902 0.860063 0.97429 1.10941 1.26542 1.44232 1.63245 1.81709 1.99538 2.16733 2.33293 0.412053 0.478137 0.554567 0.641345 0.73847 0.846076 0.967115 1.1028 1.25312 1.41808 1.59887 1.80263 2.03056 2.28264 2.55889 2.85959 3.18544 3.53647 3.91269 4.3141 0.588255 0.681482 0.787642 0.906735 1.03876 1.18392 1.34661 1.52864 1.73001 1.95071 2.19132 2.45518 2.74288 3.05441 3.38976 3.75285 4.1532 4.59126 5.06701 5.58047 0.742365 0.858293 0.988797 1.13388 1.29354 1.46795 1.66111 1.87464 2.10854 2.36282 2.6374 2.93195 3.24638 3.58071 3.93493 4.31223 4.72038 5.15973 5.63029 6.13205 0.873761 1.00788 1.15729 1.32198 1.50197 1.69732 1.90982 2.1402 2.38846 2.65459 2.93792 3.23445 3.54349 3.86505 4.19912 4.54403 4.89567 5.25384 5.61855 5.98979 0.968761 1.11505 1.27667 1.45361 1.64587 1.85344 2.07582 2.31281 2.56441 2.83062 3.11026 3.39634 3.68768 3.98428 4.28614 4.58679 4.87042 5.13629 5.38442 5.6148 1.02177 1.1736 1.34022 1.52162 1.71782 1.92872 2.15218 2.38735 2.63421 2.89278 3.16153 3.43138 3.70082 3.96984 4.23845 4.49718 4.7229 4.91456 5.07217 5.19571 1.03279 1.18352 1.34793 1.52603 1.71782 1.92314 2.1389 2.3638 2.59786 2.84107 3.09173 3.33958 3.58292 3.82174 4.05605 4.27519 4.45312 4.58865 4.68178 4.73252 1.00181 1.14481 1.29982 1.46683 1.64585 1.83672 2.03597 2.24218 2.45536 2.6755 2.90086 3.12094 3.33398 3.53998 3.73895 3.92084 4.06108 4.15856 4.21327 4.22523 0.932583 1.06196 1.20121 1.35032 1.50929 1.67798 1.85314 2.03345 2.2189 2.4095 2.60359 2.79128 2.97092 3.14251 3.30604 3.45363 3.56595 3.64214 3.68219 3.68611 0.847551 0.961893 1.08414 1.21429 1.35234 1.49816 1.64891 1.8034 1.96163 2.12362 2.28789 2.44561 2.59533 2.73705 2.87075 2.9907 3.08286 3.14659 3.18189 3.18876 0.750456 0.849084 0.953945 1.06504 1.18236 1.30581 1.43301 1.56299 1.69576 1.83131 1.96842 2.09977 2.22415 2.34155 2.45197 2.55158 2.63099 2.68977 2.72792 2.74545 0.641296 0.723538 0.810628 0.902569 0.999358 1.10092 1.20545 1.31224 1.42127 1.53256 1.64519 1.75376 1.85737 1.95602 2.04971 2.13626 2.21032 2.27166 2.32028 2.35617 0.520073 0.585253 0.654189 0.726881 0.803329 0.883482 0.966235 1.05113 1.13818 1.22737 1.3182 1.40758 1.495 1.58046 1.66397 1.74474 1.82088 1.89229 1.95898 2.02094 0.393472 0.441662 0.492745 0.546722 0.603592 0.663336 0.725528 0.789994 0.856735 0.92575 0.996914 1.06948 1.14332 1.21844 1.29484 1.37276 1.45281 1.535 1.61935 1.70585 0.277838 0.310932 0.346145 0.383476 0.422925 0.464493 0.508195 0.554039 0.602024 0.652149 0.704511 0.759678 0.817743 0.878708 0.942572 1.0099 1.08207 1.15915 1.24114 1.32803 0.173913 0.19389 0.21529 0.238115 0.262363 0.288045 0.315367 0.344414 0.375185 0.407682 0.44204 0.479085 0.518956 0.561651 0.607171 0.655679 0.707578 0.762885 0.821599 0.883722 0.0816989 0.0905343 0.100181 0.110638 0.121907 0.133993 0.147044 0.16112 0.176221 0.192346 0.2095 0.227704 0.246962 0.267274 0.288639 0.310102 0.329325 0.346201 0.360731 0.372915 0.00119416 0.00086575 0.000816511 0.00104644 0.00155554 0.00233638 0.00322562 0.00415643 0.0051288 0.00614275 0.00689135 0.00553316 0.00176126 -0.00442434 -0.0130237 -0.0268329 -0.0526873 -0.0908977 -0.141464 -0.204386 -0.0066172 -0.00814689 -0.00733156 -0.00417122 0.00133412 0.00893245 0.0130793 0.0115064 0.00421384 -0.00879842 -0.0250657 -0.0297995 -0.0205351 0.00272741 0.0399881 0.0713325 0.0480811 -0.0319789 -0.168847 -0.362525 0.213462 0.247911 0.289169 0.337237 0.392115 0.453785 0.521882 0.596256 0.676907 0.763836 0.858865 0.972933 1.10786 1.26366 1.44031 1.63018 1.81456 1.9926 2.16431 2.32969 0.41148 0.477471 0.553795 0.640452 0.737441 0.844898 0.965768 1.10126 1.25137 1.4161 1.59664 1.80012 2.02773 2.27946 2.55533 2.85561 3.18101 3.53155 3.90725 4.3081 0.587437 0.680534 0.786546 0.905473 1.03731 1.18227 1.34474 1.52652 1.7276 1.948 2.18826 2.45176 2.73906 3.05016 3.38504 3.74763 4.14742 4.58487 5.05997 5.57271 0.741332 0.857099 0.987421 1.1323 1.29173 1.46591 1.65879 1.87203 2.1056 2.35953 2.63373 2.92786 3.24186 3.57573 3.92946 4.30623 4.71381 5.15256 5.62246 6.12352 0.872545 1.00648 1.15567 1.32014 1.49988 1.69496 1.90716 2.13722 2.38513 2.65089 2.93383 3.22995 3.53856 3.85967 4.19328 4.53771 4.88886 5.24653 5.61073 5.98146 0.967414 1.1135 1.27489 1.45158 1.64358 1.85086 2.07294 2.30959 2.56084 2.82668 3.10593 3.39161 3.68254 3.97873 4.28018 4.58041 4.86364 5.12915 5.37693 5.60699 1.02035 1.17196 1.33835 1.51951 1.71543 1.92603 2.14919 2.38402 2.63055 2.88875 3.15713 3.42661 3.69567 3.96432 4.23255 4.49092 4.71633 4.90773 5.06511 5.18849 1.03135 1.18187 1.34606 1.52391 1.71543 1.92047 2.13592 2.36051 2.59425 2.83712 3.08743 3.33494 3.57793 3.81643 4.05041 4.26925 4.44693 4.58227 4.67527 4.72594 1.00042 1.14322 1.29801 1.46479 1.64356 1.83416 2.03313 2.23906 2.45194 2.67178 2.89683 3.11659 3.32934 3.53506 3.73375 3.91538 4.05543 4.15277 4.20741 4.21935 0.931286 1.06049 1.19954 1.34844 1.50719 1.67564 1.85056 2.03062 2.21581 2.40614 2.59997 2.7874 2.96679 3.13813 3.30144 3.44883 3.561 3.63708 3.67707 3.68098 0.846372 0.960555 1.08263 1.2126 1.35046 1.49608 1.64661 1.80089 1.95891 2.12067 2.2847 2.44221 2.59172 2.73324 2.86676 2.98654 3.07858 3.14222 3.17747 3.18432 0.749412 0.847903 0.952618 1.06356 1.18072 1.30399 1.43102 1.56082 1.6934 1.82876 1.96568 2.09685 2.22106 2.33829 2.44856 2.54803 2.62733 2.68603 2.72413 2.74163 0.640404 0.722531 0.809501 0.901313 0.997968 1.09938 1.20378 1.31041 1.4193 1.53043 1.6429 1.75132 1.85479 1.9533 2.04686 2.13329 2.20725 2.26851 2.31705 2.3529 0.519349 0.584439 0.653279 0.72587 0.802211 0.882253 0.964891 1.04967 1.1366 1.22566 1.31636 1.40562 1.49292 1.57826 1.66165 1.74231 1.81834 1.88966 1.95625 2.01813 0.392925 0.441048 0.49206 0.545962 0.602752 0.662413 0.724518 0.788895 0.855542 0.924461 0.995526 1.06799 1.14173 1.21675 1.29304 1.37085 1.45078 1.53287 1.6171 1.70348 0.277451 0.3105 0.345664 0.382942 0.422336 0.463846 0.507488 0.553267 0.601185 0.651241 0.70353 0.758619 0.816604 0.877483 0.941258 1.00849 1.08056 1.15754 1.23941 1.32619 0.173672 0.19362 0.214991 0.237783 0.261998 0.287644 0.314928 0.343934 0.374663 0.407114 0.441424 0.478418 0.518233 0.560868 0.606325 0.654766 0.706592 0.761822 0.820456 0.882493 0.0815853 0.0904082 0.100041 0.110484 0.121737 0.133806 0.146839 0.160896 0.175975 0.192078 0.209208 0.227387 0.246618 0.266902 0.288239 0.309673 0.328869 0.345722 0.360231 0.372396 0.0011925 0.000864205 0.000814865 0.00104448 0.00155304 0.00233314 0.00322144 0.00415114 0.00512224 0.00613474 0.00688223 0.0055263 0.00176053 -0.00441507 -0.0130005 -0.0267887 -0.0526067 -0.0907648 -0.141263 -0.204102 -0.00658976 -0.0081131 -0.00730115 -0.00415392 0.00132859 0.00889541 0.013025 0.0114587 0.00419637 -0.00876193 -0.0249617 -0.0296759 -0.0204499 0.00271609 0.0398222 0.0710367 0.0478817 -0.0318463 -0.168147 -0.361021 0.212577 0.246882 0.287969 0.335837 0.390486 0.4519 0.519714 0.593779 0.674096 0.760663 0.855298 0.968893 1.10326 1.25841 1.43433 1.62341 1.80703 1.98434 2.15534 2.32003 0.409774 0.47549 0.551496 0.637792 0.734379 0.841388 0.961757 1.09669 1.24617 1.41022 1.59001 1.79265 2.01931 2.27 2.54472 2.84376 3.16781 3.5169 3.89104 4.29023 0.585 0.67771 0.783281 0.901713 1.03301 1.17736 1.33915 1.52018 1.72043 1.93991 2.17918 2.44159 2.72769 3.03749 3.371 3.73207 4.13022 4.56585 5.03898 5.5496 0.738258 0.853542 0.983323 1.1276 1.28637 1.45982 1.65191 1.86425 2.09686 2.34973 2.6228 2.91571 3.22841 3.56089 3.91315 4.28836 4.69425 5.13118 5.59914 6.09812 0.868926 1.0023 1.15088 1.31466 1.49365 1.68792 1.89925 2.12835 2.37523 2.63989 2.92166 3.21654 3.52387 3.84365 4.17588 4.51888 4.86857 5.22477 5.58746 5.95665 0.963401 1.10888 1.2696 1.44556 1.63676 1.84318 2.06433 2.30001 2.55021 2.81495 3.09304 3.37754 3.66726 3.96222 4.26242 4.56141 4.84346 5.10787 5.35463 5.58374 1.01612 1.1671 1.3328 1.5132 1.70832 1.91804 2.14027 2.37413 2.61963 2.87677 3.14403 3.41239 3.68034 3.94787 4.21499 4.47229 4.69676 4.88737 5.0441 5.16697 1.02707 1.17697 1.34047 1.51759 1.70831 1.9125 2.12706 2.35072 2.58349 2.82535 3.07462 3.3211 3.56309 3.80059 4.03361 4.25154 4.42848 4.56326 4.65588 4.70634 0.996267 1.13848 1.29262 1.45871 1.63674 1.82655 2.0247 2.22977 2.44177 2.6607 2.88481 3.10367 3.31553 3.52039 3.71826 3.89914 4.03861 4.13555 4.18996 4.20185 0.927423 1.05609 1.19456 1.34285 1.50094 1.66869 1.84289 2.0222 2.20662 2.39616 2.58918 2.77583 2.95448 3.12512 3.28775 3.43452 3.54623 3.62199 3.66182 3.66571 0.842862 0.956571 1.07814 1.20757 1.34486 1.48988 1.63978 1.79342 1.95078 2.11187 2.27523 2.43208 2.58097 2.7219 2.85487 2.97416 3.06581 3.12918 3.16429 3.17111 0.746304 0.844387 0.948667 1.05914 1.17582 1.29859 1.42508 1.55435 1.68638 1.82118 1.95753 2.08816 2.21185 2.3286 2.43841 2.53746 2.61643 2.67489 2.71283 2.73026 0.637748 0.719535 0.806144 0.897575 0.993829 1.09482 1.19878 1.30498 1.41341 1.52408 1.63609 1.74406 1.8471 1.9452 2.03837 2.12444 2.19809 2.2591 2.30744 2.34314 0.517195 0.582015 0.650569 0.722859 0.798884 0.878594 0.960889 1.04532 1.13188 1.22058 1.3109 1.39979 1.48672 1.57172 1.65476 1.73509 1.8108 1.88182 1.94814 2.00976 0.391295 0.439218 0.490019 0.543697 0.600252 0.659665 0.721512 0.785622 0.851993 0.920626 0.991396 1.06356 1.13699 1.2117 1.28767 1.36516 1.44476 1.52651 1.61039 1.69642 0.276301 0.309212 0.34423 0.381354 0.420584 0.461921 0.505381 0.550971 0.59869 0.648538 0.70061 0.755471 0.813215 0.873842 0.937352 1.00431 1.07608 1.15273 1.23427 1.32069 0.172951 0.192817 0.214098 0.236796 0.26091 0.28645 0.31362 0.342506 0.373107 0.405423 0.439591 0.476432 0.516081 0.55854 0.603808 0.652048 0.70366 0.758661 0.817052 0.878833 0.0812469 0.0900329 0.0996255 0.110025 0.121231 0.13325 0.146229 0.160227 0.175244 0.19128 0.208339 0.226442 0.245594 0.265794 0.287042 0.308388 0.327505 0.344288 0.358737 0.370852 0.00118755 0.000860231 0.000810806 0.00103928 0.00154564 0.0023225 0.00320713 0.00413296 0.00509999 0.00610821 0.00685254 0.00550236 0.00175258 -0.00439682 -0.0129458 -0.026676 -0.0523865 -0.0903866 -0.140676 -0.203255 -0.00654409 -0.00805686 -0.00725054 -0.00412513 0.00131938 0.00883375 0.0129348 0.0113793 0.00416728 -0.0087012 -0.0247887 -0.0294702 -0.0203082 0.00269727 0.0395462 0.0705443 0.0475498 -0.0316255 -0.166982 -0.358519 0.211103 0.24517 0.285971 0.333506 0.387775 0.448762 0.516106 0.589657 0.669416 0.755384 0.849362 0.962169 1.09561 1.24968 1.42438 1.61215 1.7945 1.97058 2.14039 2.30395 0.406933 0.472192 0.54767 0.633367 0.729282 0.835548 0.955081 1.08907 1.23752 1.40043 1.57898 1.78021 2.0053 2.25425 2.52707 2.82403 3.14584 3.49252 3.86407 4.2605 0.580946 0.67301 0.777847 0.895457 1.02584 1.16919 1.32986 1.50963 1.70849 1.92645 2.16406 2.42465 2.70877 3.01642 3.34761 3.70619 4.10158 4.53419 5.00405 5.51113 0.733141 0.847624 0.976503 1.11978 1.27745 1.44969 1.64045 1.85132 2.08231 2.33343 2.6046 2.89548 3.20601 3.53619 3.88601 4.25862 4.66171 5.09561 5.56032 6.05586 0.862904 0.995351 1.1429 1.30554 1.48329 1.67621 1.88607 2.11359 2.35876 2.62158 2.90139 3.19423 3.49943 3.817 4.14692 4.48755 4.83482 5.18855 5.54873 5.91537 0.956724 1.10119 1.2608 1.43554 1.62541 1.8304 2.05002 2.28406 2.53253 2.79543 3.0716 3.35412 3.64184 3.93475 4.23286 4.52978 4.80988 5.07246 5.31751 5.54504 1.00907 1.15901 1.32356 1.50271 1.69647 1.90474 2.12543 2.35767 2.60147 2.85682 3.12223 3.38873 3.65482 3.9205 4.18577 4.44128 4.6642 4.85349 5.00914 5.13115 1.01995 1.16881 1.33118 1.50707 1.69647 1.89924 2.11231 2.33442 2.56558 2.80577 3.05331 3.29808 3.53839 3.77425 4.00564 4.22206 4.39778 4.53163 4.62361 4.67372 0.989362 1.13058 1.28366 1.4486 1.6254 1.81389 2.01067 2.21432 2.42485 2.64226 2.86481 3.08215 3.29254 3.49599 3.69249 3.87211 4.01061 4.10688 4.16092 4.17273 0.920995 1.04877 1.18628 1.33354 1.49054 1.65713 1.83011 2.00818 2.19133 2.37956 2.57124 2.75659 2.934 3.10346 3.26496 3.41071 3.52164 3.59689 3.63644 3.64031 0.83702 0.949941 1.07067 1.1992 1.33554 1.47955 1.62842 1.78099 1.93726 2.09724 2.25946 2.41523 2.56309 2.70304 2.83508 2.95354 3.04456 3.10749 3.14235 3.14913 0.741131 0.838534 0.942092 1.0518 1.16767 1.28959 1.41521 1.54358 1.67469 1.80856 1.94396 2.07369 2.19652 2.31246 2.42151 2.51988 2.5983 2.65634 2.69402 2.71133 0.633328 0.714548 0.800557 0.891355 0.986942 1.08724 1.19048 1.29594 1.40362 1.51352 1.62475 1.73197 1.83429 1.93172 2.02424 2.10971 2.18286 2.24344 2.29145 2.3269 0.513611 0.577981 0.64606 0.717849 0.793347 0.872505 0.95423 1.03807 1.12404 1.21212 1.30182 1.39008 1.47642 1.56082 1.64329 1.72306 1.79825 1.86877 1.93463 1.99583 0.388583 0.436174 0.486622 0.539928 0.596091 0.655092 0.716511 0.780176 0.846087 0.914244 0.984523 1.05619 1.12911 1.2033 1.27875 1.3557 1.43475 1.51593 1.59923 1.68466 0.274386 0.307068 0.341843 0.378709 0.417668 0.458718 0.501877 0.54715 0.594538 0.644041 0.695752 0.750232 0.807576 0.867783 0.930852 0.997344 1.06862 1.14474 1.22571 1.31153 0.171753 0.19148 0.212614 0.235154 0.2591 0.284462 0.311444 0.34013 0.370518 0.40261 0.436541 0.473126 0.512501 0.554666 0.59962 0.647526 0.698781 0.753402 0.811388 0.872741 0.0806838 0.0894084 0.0989341 0.109261 0.120389 0.132324 0.145213 0.159113 0.174026 0.189951 0.206891 0.224869 0.243888 0.263948 0.285049 0.306247 0.325232 0.341899 0.356249 0.368282 0.00117932 0.00085383 0.000804335 0.00103083 0.00153332 0.00230446 0.00318268 0.00410187 0.00506203 0.00606317 0.00680228 0.00546136 0.0017374 -0.00436959 -0.0128596 -0.0264948 -0.0520269 -0.0897629 -0.139703 -0.201846 -0.00648018 -0.00797819 -0.00717974 -0.00408485 0.0013065 0.00874749 0.0128085 0.0112682 0.00412659 -0.00861624 -0.0245466 -0.0291824 -0.0201099 0.00267093 0.0391601 0.0698555 0.0470855 -0.0313167 -0.165351 -0.355018 0.209042 0.242774 0.283175 0.330245 0.383983 0.444373 0.511058 0.58389 0.662869 0.747996 0.841057 0.952762 1.0849 1.23746 1.41046 1.5964 1.77697 1.95133 2.11949 2.28145 0.40296 0.467579 0.542317 0.627175 0.722151 0.827378 0.945741 1.07842 1.22542 1.38674 1.56354 1.76281 1.9857 2.23222 2.50238 2.79644 3.11511 3.4584 3.82633 4.21889 0.575273 0.666435 0.770246 0.886704 1.01581 1.15776 1.31686 1.49487 1.69179 1.90762 2.1429 2.40095 2.6823 2.98695 3.3149 3.66998 4.06151 4.4899 4.95517 5.45732 0.725982 0.839344 0.966961 1.10883 1.26496 1.43552 1.62441 1.83322 2.06196 2.31062 2.57915 2.86719 3.17468 3.50164 3.84804 4.21702 4.61617 5.04583 5.50602 5.99672 0.854478 0.985629 1.13173 1.29279 1.4688 1.65983 1.86764 2.09293 2.33571 2.59596 2.87304 3.16302 3.46524 3.77971 4.10641 4.44371 4.78759 5.13787 5.49454 5.85761 0.947382 1.09044 1.24848 1.42151 1.60953 1.81252 2.02999 2.26175 2.50779 2.76812 3.04159 3.32135 3.60626 3.89631 4.19151 4.48553 4.7629 5.02292 5.26558 5.49089 0.99922 1.14769 1.31063 1.48803 1.6799 1.88614 2.10467 2.33464 2.57606 2.82892 3.09174 3.35563 3.61912 3.88221 4.14489 4.3979 4.61865 4.80609 4.96022 5.08105 1.00999 1.15739 1.31818 1.49235 1.6799 1.88069 2.09168 2.31162 2.54052 2.77836 3.02349 3.26587 3.50383 3.73739 3.96652 4.18082 4.35483 4.48737 4.57845 4.62808 0.979701 1.11954 1.27113 1.43445 1.60952 1.79618 1.99103 2.19269 2.40117 2.61645 2.83684 3.05205 3.26039 3.46185 3.65642 3.83429 3.97144 4.06677 4.12029 4.13198 0.912002 1.03853 1.1747 1.32052 1.47598 1.64095 1.81224 1.98857 2.16993 2.35632 2.54613 2.72968 2.90535 3.07315 3.23308 3.3774 3.48725 3.56176 3.60093 3.60476 0.828847 0.940665 1.06021 1.18749 1.3225 1.4651 1.61252 1.7636 1.91835 2.07676 2.2374 2.39164 2.53806 2.67664 2.80739 2.9247 3.01482 3.07715 3.11167 3.11838 0.733894 0.830347 0.932894 1.04154 1.15627 1.277 1.40139 1.52851 1.65834 1.7909 1.92498 2.05344 2.17507 2.28988 2.39786 2.49527 2.57292 2.6304 2.66771 2.68486 0.627143 0.70757 0.79274 0.882652 0.977306 1.07662 1.17885 1.28328 1.38991 1.49874 1.60889 1.71506 1.81639 1.91286 2.00448 2.08911 2.16154 2.22153 2.26907 2.30418 0.508595 0.572337 0.639752 0.71084 0.785601 0.863986 0.944913 1.02794 1.11306 1.20029 1.2891 1.37651 1.462 1.54558 1.62724 1.70623 1.78069 1.85052 1.91574 1.97634 0.384788 0.431914 0.48187 0.534655 0.590269 0.648694 0.709513 0.772557 0.837824 0.905315 0.974908 1.04587 1.11809 1.19155 1.26626 1.34246 1.42074 1.50112 1.58361 1.66821 0.271706 0.304069 0.338504 0.37501 0.413587 0.454237 0.496974 0.541805 0.58873 0.637749 0.688955 0.742903 0.799687 0.859306 0.921761 0.987603 1.05818 1.13356 1.21375 1.29873 0.170075 0.189609 0.210536 0.232856 0.256568 0.281682 0.3084 0.336805 0.366896 0.398674 0.432274 0.468502 0.507492 0.549245 0.593761 0.6412 0.691955 0.746043 0.803464 0.864219 0.0798959 0.0885347 0.0979667 0.108192 0.119211 0.131029 0.143791 0.157556 0.172322 0.188091 0.204866 0.222669 0.241502 0.261366 0.28226 0.303251 0.322051 0.338557 0.352768 0.364685 0.0011678 0.000845001 0.00079545 0.00101915 0.0015161 0.00227904 0.0031481 0.00405788 0.00500838 0.00599961 0.00673145 0.00540328 0.00171501 -0.00433338 -0.0127419 -0.0262451 -0.0515278 -0.0888937 -0.138343 -0.199875 -0.00639809 -0.00787711 -0.00708878 -0.0040331 0.00128995 0.00863667 0.0126462 0.0111254 0.00407431 -0.00850708 -0.0242356 -0.0288127 -0.0198551 0.00263709 0.0386639 0.0689705 0.046489 -0.0309199 -0.163256 -0.35052 0.206394 0.239697 0.279584 0.326055 0.379111 0.438734 0.504572 0.57648 0.654458 0.738506 0.830387 0.940677 1.07114 1.22177 1.39258 1.57616 1.75444 1.9266 2.09263 2.25254 0.397855 0.461652 0.53544 0.61922 0.71299 0.81688 0.933742 1.06474 1.20988 1.36915 1.54371 1.74045 1.96052 2.20392 2.47065 2.76099 3.07562 3.41457 3.77785 4.16544 0.567985 0.657988 0.76048 0.875459 1.00293 1.14307 1.30015 1.47591 1.67033 1.88342 2.11573 2.3705 2.64828 2.94908 3.27288 3.62346 4.01003 4.433 4.89239 5.38818 0.716784 0.828706 0.954703 1.09477 1.24892 1.41732 1.60381 1.80998 2.03581 2.28132 2.54645 2.83084 3.13444 3.45725 3.79926 4.16357 4.55766 4.98189 5.43625 5.92075 0.843652 0.973138 1.11739 1.2764 1.45017 1.63879 1.84396 2.0664 2.3061 2.56305 2.83662 3.12293 3.42132 3.7318 4.05436 4.38739 4.72692 5.07276 5.42492 5.7834 0.935379 1.07662 1.23266 1.4035 1.58913 1.78954 2.00426 2.23308 2.476 2.73303 3.00304 3.27926 3.56056 3.84694 4.13839 4.42869 4.70254 4.95927 5.19886 5.42133 0.986561 1.13315 1.29402 1.46917 1.65861 1.86223 2.078 2.30506 2.54341 2.79307 3.05256 3.31311 3.57326 3.83301 4.09236 4.34217 4.56012 4.74519 4.89737 5.01668 0.997198 1.14273 1.30148 1.47344 1.65861 1.85686 2.06518 2.28233 2.50833 2.74316 2.98518 3.22449 3.45944 3.69003 3.91626 4.12785 4.29964 4.43051 4.52044 4.56945 0.967289 1.10536 1.25502 1.41628 1.58913 1.77342 1.9658 2.16491 2.37075 2.58331 2.8009 3.01339 3.21908 3.41799 3.61009 3.78571 3.92112 4.01524 4.06808 4.07964 0.900448 1.02537 1.15982 1.30379 1.45728 1.62016 1.78929 1.96338 2.14244 2.32647 2.51388 2.6951 2.86854 3.03422 3.19211 3.33461 3.44306 3.51663 3.5553 3.55909 0.818346 0.928748 1.04678 1.17245 1.30574 1.44655 1.5921 1.74126 1.89405 2.05045 2.20906 2.36135 2.50591 2.64273 2.77183 2.88764 2.97662 3.03816 3.07224 3.07888 0.724596 0.819827 0.921076 1.02834 1.14162 1.26082 1.38364 1.50915 1.63734 1.76822 1.9006 2.02743 2.14752 2.26087 2.36748 2.46365 2.54032 2.59707 2.63391 2.65084 0.619198 0.698607 0.782698 0.871471 0.964927 1.06299 1.16392 1.26703 1.37231 1.47976 1.58851 1.69334 1.79338 1.88862 1.97908 2.06264 2.13415 2.19338 2.24032 2.27498 0.502152 0.565086 0.631647 0.701835 0.775649 0.853042 0.932944 1.01492 1.09896 1.18508 1.27277 1.35907 1.44348 1.526 1.60663 1.68462 1.75813 1.82708 1.89147 1.95131 0.379913 0.426442 0.475764 0.52788 0.58279 0.640475 0.700524 0.762768 0.827208 0.893844 0.962556 1.03262 1.10392 1.17645 1.25022 1.32545 1.40274 1.48211 1.56355 1.64707 0.268264 0.300216 0.334214 0.370257 0.408345 0.448479 0.490675 0.534938 0.581268 0.629666 0.680222 0.733487 0.789552 0.848417 0.910081 0.97509 1.04478 1.1192 1.19837 1.28227 0.167921 0.187206 0.207867 0.229903 0.253314 0.27811 0.304489 0.332533 0.362243 0.393618 0.426792 0.462561 0.501058 0.542282 0.586234 0.633073 0.683186 0.736589 0.793284 0.85327 0.0788837 0.0874122 0.096724 0.106819 0.117697 0.129365 0.141965 0.155554 0.170133 0.185702 0.202265 0.219841 0.238435 0.258047 0.278677 0.299401 0.317963 0.334262 0.348296 0.360065 0.00115301 0.000833737 0.000784144 0.00100423 0.00149399 0.00224627 0.00310346 0.0040011 0.00493919 0.00591771 0.00664028 0.00532842 0.00168572 -0.00428781 -0.0125922 -0.0259265 -0.0508889 -0.0877791 -0.136597 -0.197343 -0.00629854 -0.00775455 -0.00697849 -0.00397035 0.00126988 0.00850229 0.0124494 0.0109523 0.00401092 -0.00837472 -0.0238586 -0.0283644 -0.0195462 0.00259606 0.0380624 0.0678974 0.0457657 -0.0304389 -0.160716 -0.345066 0.203182 0.235965 0.275229 0.320975 0.373202 0.431896 0.496707 0.567494 0.644257 0.726996 0.817447 0.92602 1.05445 1.20274 1.37089 1.55162 1.72713 1.89661 2.06007 2.2175 0.391664 0.454465 0.527101 0.609573 0.70188 0.80415 0.91919 1.04815 1.19102 1.34781 1.51966 1.71333 1.92998 2.1696 2.43218 2.71801 3.02775 3.36143 3.71906 4.10063 0.559148 0.647746 0.748638 0.861823 0.987302 1.12527 1.2799 1.45291 1.6443 1.85408 2.08277 2.33358 2.60704 2.90316 3.22192 3.56705 3.94761 4.36401 4.81626 5.30434 0.705632 0.815808 0.939839 1.07773 1.22947 1.39524 1.57883 1.78178 2.00411 2.24579 2.50679 2.78676 3.08563 3.40342 3.74012 4.09876 4.48672 4.90436 5.35166 5.82863 0.830526 0.957994 1.09999 1.25653 1.4276 1.61328 1.81525 2.03423 2.27019 2.52315 2.79246 3.07431 3.36806 3.67371 3.99126 4.31911 4.65335 4.99382 5.34051 5.69341 0.920826 1.05987 1.21347 1.38165 1.5644 1.76169 1.97306 2.19832 2.43746 2.6905 2.9563 3.22822 3.50514 3.78707 4.07399 4.35977 4.62936 4.8821 5.11797 5.33698 0.971211 1.11552 1.27388 1.44631 1.6328 1.83325 2.04566 2.26918 2.50383 2.7496 3.00506 3.26156 3.51766 3.77337 4.02868 4.27461 4.48916 4.67135 4.82117 4.93862 0.981682 1.12495 1.28123 1.45051 1.6328 1.82797 2.03304 2.24682 2.4693 2.70048 2.93873 3.17432 3.40561 3.63262 3.85533 4.06362 4.23274 4.36157 4.45011 4.49835 0.952239 1.08816 1.2355 1.39424 1.56441 1.74583 1.93522 2.13123 2.33387 2.54312 2.75733 2.96651 3.169 3.36481 3.55393 3.72681 3.86011 3.95277 4.00478 4.01616 0.886438 1.00942 1.14177 1.2835 1.43461 1.59496 1.76146 1.93284 2.10912 2.29029 2.47477 2.65318 2.82392 2.98702 3.14245 3.28273 3.38949 3.46191 3.49999 3.50371 0.805613 0.9143 1.0305 1.15421 1.28543 1.42405 1.56733 1.71418 1.86459 2.01856 2.1747 2.32462 2.46693 2.60162 2.72871 2.84272 2.93031 2.99089 3.02444 3.03097 0.713322 0.807073 0.906748 1.01235 1.12387 1.24121 1.36212 1.48568 1.61187 1.74072 1.87104 1.9959 2.11412 2.2257 2.33065 2.42532 2.5008 2.55667 2.59293 2.6096 0.609564 0.687739 0.770523 0.857916 0.949919 1.04645 1.14582 1.24733 1.35097 1.45674 1.5638 1.667 1.76548 1.85925 1.9483 2.03055 2.10095 2.15926 2.20547 2.23959 0.494339 0.556295 0.621821 0.690917 0.763584 0.839773 0.918432 0.999131 1.08187 1.16665 1.25298 1.33793 1.42103 1.50226 1.58163 1.65841 1.73077 1.79865 1.86204 1.92095 0.374002 0.419807 0.468362 0.519667 0.573723 0.63051 0.689624 0.7509 0.814337 0.879935 0.947577 1.01655 1.08674 1.15814 1.23076 1.30483 1.38091 1.45904 1.53922 1.62145 0.26409 0.295545 0.329013 0.364494 0.401989 0.441499 0.483037 0.52661 0.572219 0.619863 0.669633 0.722069 0.777261 0.83521 0.895916 0.959914 1.02852 1.10179 1.17972 1.26232 0.165308 0.184293 0.204631 0.226323 0.249369 0.273778 0.299746 0.327353 0.3566 0.387487 0.420144 0.455356 0.493254 0.533837 0.577107 0.623218 0.672552 0.725126 0.78094 0.839994 0.0776564 0.0860511 0.095217 0.105154 0.115862 0.127347 0.13975 0.153128 0.16748 0.182806 0.199111 0.216414 0.234719 0.254026 0.274335 0.294737 0.313011 0.329057 0.342874 0.354463 0.00113507 0.000819906 0.000770244 0.000986082 0.00146742 0.00220722 0.00305057 0.0039341 0.0048578 0.00582168 0.00653384 0.00524287 0.00165686 -0.00422419 -0.0124003 -0.0255282 -0.0501022 -0.0864177 -0.134474 -0.194273 -0.00618185 -0.00761089 -0.0068492 -0.00389679 0.00124635 0.00834477 0.0122188 0.0107494 0.00393661 -0.00821956 -0.0234165 -0.0278389 -0.0191841 0.00254796 0.0373572 0.0666394 0.0449178 -0.0298749 -0.157739 -0.338673 0.199418 0.23159 0.270123 0.315018 0.366275 0.423878 0.487486 0.556959 0.632298 0.713502 0.802275 0.908837 1.03489 1.18044 1.34547 1.52286 1.69512 1.86147 2.0219 2.17641 0.384408 0.44604 0.517325 0.598263 0.688855 0.789225 0.902129 1.02869 1.16892 1.3228 1.49146 1.68155 1.89418 2.12936 2.38708 2.66762 2.97163 3.29914 3.65015 4.02466 0.548788 0.635739 0.734756 0.845838 0.968987 1.10439 1.25615 1.42595 1.6138 1.81968 2.04413 2.2903 2.55869 2.84932 3.16219 3.50093 3.87445 4.28314 4.72702 5.20607 0.692559 0.800687 0.922416 1.05774 1.20667 1.36936 1.54955 1.74874 1.96694 2.20414 2.4603 2.73508 3.02842 3.34033 3.67079 4.02279 4.40358 4.81348 5.2525 5.72064 0.815139 0.940241 1.07961 1.23324 1.40113 1.58337 1.7816 1.99651 2.22811 2.47638 2.7407 3.01733 3.30564 3.60562 3.91729 4.23907 4.56713 4.90129 5.24156 5.58793 0.903766 1.04023 1.19099 1.35605 1.53541 1.72904 1.9365 2.15758 2.39229 2.64064 2.90152 3.1684 3.44019 3.71689 3.99851 4.27899 4.54359 4.79165 5.02315 5.2381 0.953218 1.09485 1.25028 1.41951 1.60255 1.79929 2.00776 2.22714 2.45744 2.69866 2.94939 3.20113 3.45249 3.70346 3.95405 4.19541 4.406 4.58481 4.73185 4.84713 0.963495 1.10411 1.25749 1.42364 1.60255 1.79411 1.99538 2.2052 2.42356 2.65046 2.8843 3.11552 3.34253 3.56533 3.78391 3.98834 4.15433 4.28077 4.36767 4.41501 0.934597 1.068 1.21261 1.36842 1.53543 1.7135 1.89938 2.09176 2.29064 2.49602 2.70626 2.91157 3.11031 3.30249 3.4881 3.65778 3.78861 3.87954 3.93059 3.94175 0.870015 0.990718 1.12062 1.25973 1.40805 1.56542 1.72884 1.89705 2.07006 2.24788 2.42895 2.60405 2.77163 2.9317 3.08425 3.22193 3.32671 3.39779 3.43515 3.4388 0.790688 0.897364 1.01141 1.13284 1.26163 1.39768 1.53831 1.68244 1.83007 1.98119 2.13444 2.28158 2.42125 2.55345 2.67817 2.79007 2.87604 2.93549 2.96841 2.97482 0.700107 0.792124 0.889956 0.993601 1.10306 1.21823 1.3369 1.45817 1.58203 1.70849 1.8364 1.95894 2.07497 2.18449 2.28749 2.38041 2.45448 2.50931 2.5449 2.56125 0.598271 0.675 0.756253 0.84203 0.93233 1.02708 1.12461 1.22423 1.32595 1.42977 1.53485 1.63613 1.73279 1.82481 1.91221 1.99294 2.06204 2.11926 2.16461 2.1981 0.48518 0.54599 0.610304 0.678122 0.749443 0.824222 0.901424 0.980628 1.06183 1.14504 1.22977 1.31315 1.39471 1.47443 1.55233 1.62768 1.69871 1.76533 1.82754 1.88536 0.367073 0.41203 0.459686 0.51004 0.563094 0.618829 0.676848 0.736987 0.799249 0.863631 0.930018 0.997714 1.0666 1.13668 1.20795 1.28065 1.35532 1.43201 1.5107 1.59141 0.259197 0.290069 0.322916 0.35774 0.394539 0.433315 0.474083 0.516848 0.561611 0.608371 0.657217 0.708681 0.76285 0.819726 0.879307 0.942121 1.00946 1.08137 1.15786 1.23894 0.162245 0.180877 0.200838 0.222127 0.244745 0.2687 0.294185 0.32128 0.349985 0.380298 0.41235 0.446909 0.484105 0.523937 0.566405 0.611663 0.660085 0.711687 0.766469 0.824432 0.0762177 0.0844555 0.0934503 0.103202 0.11371 0.124982 0.137154 0.150283 0.164369 0.179412 0.195415 0.212398 0.230365 0.249315 0.269249 0.289275 0.307211 0.322961 0.336522 0.347896 0.00111404 0.000803452 0.000753678 0.000964717 0.00143657 0.00216233 0.00299015 0.00385791 0.0047656 0.00571323 0.00641422 0.00514913 0.0016314 -0.00413898 -0.012162 -0.0250456 -0.0491647 -0.084809 -0.131979 -0.190673 -0.00604801 -0.00744611 -0.00670091 -0.00381242 0.00121936 0.00816411 0.0119542 0.0105167 0.00385138 -0.00804161 -0.0229096 -0.0272362 -0.0187687 0.0024928 0.0365484 0.0651967 0.0439453 -0.0292281 -0.154324 -0.331341 0.195101 0.226572 0.264267 0.308186 0.358329 0.414681 0.476908 0.544874 0.618579 0.698022 0.784872 0.889126 1.01245 1.15485 1.31632 1.48987 1.6584 1.82115 1.97812 2.12929 0.376086 0.436377 0.506112 0.585292 0.673916 0.772107 0.88256 1.00638 1.14356 1.29411 1.45911 1.64509 1.85312 2.08321 2.33536 2.60983 2.90727 3.2277 3.57112 3.93753 0.536907 0.621968 0.718834 0.827504 0.947979 1.08044 1.22891 1.39503 1.57881 1.78023 1.99982 2.24065 2.50324 2.78758 3.09368 3.4251 3.79054 4.1904 4.62467 5.09336 0.677565 0.783346 0.902432 1.03482 1.18052 1.33969 1.51596 1.71083 1.9243 2.15637 2.40698 2.67581 2.96281 3.26796 3.59128 3.93567 4.30822 4.70926 5.13878 5.59679 0.797491 0.91988 1.05622 1.20653 1.37078 1.54907 1.74301 1.95326 2.17984 2.42273 2.68133 2.95197 3.23404 3.52754 3.83246 4.14728 4.46824 4.79517 5.12808 5.46695 0.884199 1.0177 1.1652 1.32668 1.50216 1.6916 1.89456 2.11086 2.34049 2.58345 2.83869 3.0998 3.3657 3.63642 3.91194 4.18635 4.44523 4.68791 4.9144 5.12469 0.932581 1.07115 1.22321 1.38878 1.56785 1.76033 1.96429 2.17893 2.40424 2.64024 2.88554 3.13184 3.37775 3.62329 3.86845 4.1046 4.31062 4.48556 4.62941 4.74219 0.942635 1.08021 1.23027 1.39282 1.56787 1.75527 1.9522 2.15747 2.37111 2.59309 2.82187 3.04809 3.27019 3.48816 3.70202 3.90202 4.06441 4.18811 4.27312 4.31943 0.914363 1.04488 1.18636 1.3388 1.5022 1.67641 1.85828 2.0465 2.24107 2.44201 2.6477 2.84856 3.04301 3.23102 3.41262 3.57862 3.70661 3.79557 3.84551 3.85642 0.851179 0.969274 1.09637 1.23247 1.37758 1.53155 1.69143 1.85601 2.02528 2.19924 2.3764 2.5477 2.71166 2.86826 3.01752 3.15221 3.25472 3.32425 3.36079 3.36435 0.77357 0.877941 0.989526 1.10832 1.23434 1.36744 1.50504 1.64605 1.79048 1.93833 2.08826 2.23222 2.36887 2.4982 2.62023 2.7297 2.8138 2.87195 2.90416 2.91041 0.684949 0.77498 0.870698 0.972104 1.0792 1.19188 1.30798 1.42663 1.54781 1.67153 1.79667 1.91656 2.03008 2.13722 2.238 2.3289 2.40136 2.455 2.48981 2.5058 0.585318 0.66039 0.739888 0.823812 0.91216 1.00486 1.10028 1.19775 1.29727 1.39884 1.50164 1.60073 1.6953 1.78533 1.87083 1.94982 2.01741 2.07339 2.11775 2.15051 0.474676 0.534172 0.597096 0.663448 0.733227 0.806388 0.881919 0.959409 1.03886 1.12026 1.20315 1.28473 1.36452 1.44252 1.51873 1.59245 1.66193 1.72711 1.78798 1.84454 0.359126 0.403111 0.449735 0.499 0.550905 0.605433 0.662195 0.721032 0.781944 0.84493 0.909879 0.976107 1.043