<?xml version="1.0"?> 
<VTKFile type="StructuredGrid" version="0.1"> 
<StructuredGrid WholeExtent="0 9 0 14 0 14"> 
<Piece Extent="0 9 0 14 0 14"> 
<PointData Scalars="u">
<DataArray type="Float32" Name="u" format="ascii" NumberOfComponents="1"> 
-5.08247e-005 -3.84727e-005 -3.35628e-005 -3.60948e-005 -4.13626e-005 -4.46597e-005 -4.59862e-005 -4.73074e-005 -5.05887e-005 -5.58302e-005 0.11246 0.11886 0.125647 0.132821 0.14041 0.148442 0.156914 0.165873 0.17536 0.185375 0.211021 0.223029 0.235764 0.249226 0.263467 0.278537 0.294435 0.311245 0.329046 0.347839 0.295388 0.3122 0.330028 0.348873 0.368806 0.389901 0.412156 0.435687 0.460605 0.486912 0.365461 0.386261 0.408319 0.431634 0.456296 0.482395 0.50993 0.539043 0.569872 0.602419 0.422251 0.446282 0.471766 0.498704 0.527199 0.557353 0.589167 0.622802 0.658423 0.696027 0.467331 0.493925 0.522129 0.551943 0.58348 0.616854 0.652064 0.68929 0.728713 0.770333 0.511661 0.540778 0.571657 0.604299 0.638828 0.675367 0.713917 0.754674 0.797837 0.843405 0.557904 0.589657 0.623329 0.658921 0.69657 0.736411 0.778446 0.822888 0.869952 0.919638 0.605769 0.640249 0.676813 0.715459 0.756337 0.799597 0.845238 0.893494 0.944596 0.998544 0.654045 0.691271 0.730747 0.772473 0.816609 0.863316 0.912595 0.964695 1.01987 1.07812 0.702602 0.742582 0.784984 0.829807 0.877221 0.927396 0.980331 1.0363 1.09557 1.15814 0.750778 0.793495 0.838801 0.886697 0.937363 0.990978 1.04754 1.10735 1.17068 1.23754 0.797206 0.842587 0.890707 0.941566 0.995363 1.05229 1.11236 1.17587 1.24312 1.31411 0.841844 0.889816 0.940657 0.994366 1.05117 1.11129 1.17473 1.2418 1.31282 1.38779 -4.87833e-005 -2.09079e-005 -7.81226e-006 -9.49636e-006 -1.64841e-005 -1.92993e-005 -1.79419e-005 -1.6344e-005 -1.84374e-005 -2.42222e-005 0.120738 0.127621 0.134915 0.142618 0.150765 0.159387 0.168486 0.178105 0.188292 0.199044 0.226554 0.239462 0.253142 0.267595 0.28288 0.299059 0.31613 0.334179 0.353292 0.373467 0.317131 0.335205 0.354357 0.374588 0.395984 0.418631 0.442529 0.467796 0.494549 0.522791 0.392361 0.414729 0.43843 0.463462 0.489935 0.517955 0.547523 0.578785 0.611886 0.646828 0.453331 0.479177 0.506563 0.535486 0.566074 0.598449 0.632611 0.668731 0.706977 0.747349 0.501731 0.530335 0.560643 0.592655 0.626507 0.662338 0.700148 0.740124 0.782453 0.827136 0.549324 0.580639 0.61382 0.648867 0.68593 0.72516 0.766557 0.810324 0.856668 0.905588 0.59897 0.633112 0.669291 0.707505 0.747918 0.790694 0.835831 0.883554 0.934086 0.987427 0.650355 0.687425 0.726706 0.768198 0.812079 0.858524 0.907533 0.95935 1.01422 1.07213 0.702186 0.742211 0.784624 0.829424 0.876802 0.926948 0.979864 1.03581 1.09505 1.15758 0.754321 0.797326 0.842891 0.891018 0.941913 0.995782 1.05263 1.11273 1.17637 1.24354 0.806046 0.852002 0.900694 0.952121 1.00651 1.06407 1.12481 1.18904 1.25704 1.32882 0.855882 0.904665 0.956359 1.01096 1.06871 1.12984 1.19433 1.26252 1.33473 1.41095 0.903786 0.955265 1.00983 1.06749 1.12848 1.19302 1.26112 1.33312 1.40937 1.48986 -4.88094e-005 -9.80708e-006 9.11041e-006 7.94306e-006 -3.88216e-007 -2.96247e-006 2.20281e-007 3.80713e-006 2.44517e-006 -3.86562e-006 0.129694 0.137098 0.144938 0.153213 0.161963 0.171225 0.181 0.191335 0.202278 0.213828 0.243361 0.257238 0.27194 0.287464 0.303881 0.32126 0.339599 0.35899 0.379521 0.401192 0.340658 0.360091 0.380673 0.402404 0.425384 0.449711 0.475384 0.502529 0.531268 0.561603 0.421469 0.445523 0.470995 0.497886 0.526319 0.556418 0.588184 0.621769 0.657328 0.694862 0.486961 0.514759 0.544194 0.575266 0.608118 0.642896 0.679598 0.718403 0.759489 0.802856 0.538953 0.569718 0.602294 0.636682 0.673042 0.711532 0.752153 0.795102 0.840574 0.88857 0.590077 0.623755 0.659419 0.697068 0.736876 0.779017 0.823491 0.870512 0.920297 0.972846 0.643405 0.68012 0.719002 0.760053 0.80346 0.849409 0.897901 0.949171 1.00345 1.06075 0.698601 0.738458 0.780673 0.825245 0.872376 0.922267 0.974918 1.03059 1.08953 1.15174 0.754277 0.797316 0.842899 0.891024 0.941911 0.995778 1.05263 1.11273 1.17637 1.24354 0.810283 0.856537 0.905515 0.957214 1.01188 1.06975 1.13082 1.19539 1.26375 1.33591 0.865846 0.915282 0.967623 1.02287 1.08128 1.14312 1.20838 1.27738 1.35043 1.42754 0.919374 0.971822 1.02737 1.08603 1.14806 1.21372 1.28301 1.35627 1.43383 1.51571 0.970818 1.0261 1.08471 1.14665 1.21216 1.28149 1.35464 1.43198 1.51388 1.60033 -5.09031e-005 -5.17025e-006 1.72053e-005 1.62234e-005 6.92499e-006 4.35065e-006 8.50041e-006 1.3146e-005 1.2059e-005 5.23952e-006 0.139331 0.14729 0.155715 0.164606 0.174005 0.183955 0.194457 0.205561 0.217317 0.229726 0.261442 0.27636 0.292157 0.308835 0.32647 0.34514 0.364843 0.385676 0.407733 0.431014 0.365969 0.386858 0.408976 0.432321 0.457006 0.48314 0.510723 0.539886 0.570762 0.60335 0.452784 0.478642 0.506016 0.534905 0.565449 0.597784 0.631912 0.667996 0.706199 0.74652 0.523143 0.553027 0.58466 0.618042 0.653333 0.690694 0.730127 0.771819 0.81596 0.862548 0.578998 0.612073 0.647083 0.684027 0.723085 0.764435 0.808079 0.854223 0.903075 0.954637 0.63392 0.670127 0.708454 0.748901 0.791664 0.836936 0.884719 0.935239 0.988725 1.04518 0.69121 0.730678 0.772464 0.816565 0.863194 0.912557 0.964656 1.01974 1.07806 1.13961 0.750506 0.79335 0.838714 0.886599 0.937229 0.990827 1.04739 1.1072 1.17052 1.23736 0.810319 0.856586 0.90557 0.957272 1.01194 1.06981 1.13088 1.19546 1.26383 1.33599 0.870488 0.920218 0.972854 1.0284 1.08712 1.14928 1.2149 1.28428 1.35772 1.43524 0.930181 0.983335 1.03959 1.09894 1.16169 1.22812 1.29823 1.37237 1.45086 1.53369 0.987682 1.04406 1.10376 1.16677 1.23341 1.30394 1.37838 1.45709 1.54042 1.62838 1.04294 1.10233 1.16529 1.23183 1.30221 1.37669 1.45527 1.53836 1.62634 1.71922 -5.50644e-005 -6.99743e-006 1.64723e-005 1.53448e-005 5.45554e-006 2.6401e-006 6.89848e-006 1.16725e-005 1.04041e-005 3.09324e-006 0.149646 0.158198 0.167248 0.176796 0.186891 0.197578 0.208857 0.220784 0.23341 0.246737 0.280798 0.296825 0.313795 0.331708 0.350647 0.370699 0.391862 0.414238 0.437928 0.462932 0.393064 0.415507 0.439265 0.464339 0.49085 0.518918 0.548544 0.579868 0.61303 0.64803 0.486306 0.514088 0.543492 0.57452 0.607323 0.642053 0.678709 0.717465 0.758497 0.801803 0.561874 0.593982 0.627962 0.663815 0.701717 0.741845 0.784198 0.828979 0.876388 0.926425 0.621865 0.657401 0.695009 0.734688 0.776636 0.821048 0.867924 0.917487 0.969957 1.02534 0.680853 0.719754 0.760925 0.804367 0.850294 0.898918 0.950241 1.0045 1.06195 1.12258 0.742385 0.784789 0.829675 0.877042 0.92712 0.980139 1.0361 1.09526 1.1579 1.22401 0.806071 0.8521 0.90083 0.952261 1.00664 1.0642 1.12496 1.1892 1.25721 1.32899 0.870312 0.920019 0.972638 1.02817 1.08688 1.14903 1.21463 1.28399 1.35742 1.43493 0.934936 0.988366 1.04491 1.10456 1.16763 1.2344 1.30488 1.37939 1.45828 1.54154 0.999048 1.05616 1.11659 1.18034 1.24772 1.31907 1.39439 1.47401 1.55831 1.64728 1.06081 1.12137 1.1855 1.25318 1.32475 1.40051 1.48046 1.565 1.6545 1.74897 1.12015 1.18395 1.25158 1.32304 1.39863 1.47862 1.56302 1.65226 1.74676 1.84651 -6.11311e-005 -1.46938e-005 7.73763e-006 6.16326e-006 -3.9805e-006 -7.25722e-006 -3.6669e-006 3.94079e-007 -1.47065e-006 -9.26109e-006 0.160656 0.169836 0.179551 0.189802 0.200639 0.212112 0.224221 0.237025 0.25058 0.264887 0.301457 0.318665 0.336884 0.356114 0.376446 0.397973 0.420693 0.444715 0.470148 0.496991 0.421981 0.446077 0.471584 0.498503 0.526963 0.557096 0.588902 0.62253 0.658132 0.695707 0.522083 0.551909 0.583477 0.616787 0.652003 0.689287 0.72864 0.770248 0.814297 0.860789 0.603211 0.63768 0.67416 0.712649 0.753339 0.796419 0.841888 0.889963 0.94086 0.994577 0.667615 0.705765 0.74614 0.788738 0.833772 0.881451 0.931776 0.984984 1.04131 1.10077 0.730943 0.772707 0.816908 0.863545 0.91285 0.965051 1.02015 1.0784 1.14008 1.20517 0.797001 0.842527 0.890716 0.941568 0.99533 1.05225 1.11232 1.17584 1.24309 1.31406 0.865373 0.914792 0.967108 1.02232 1.0807 1.1425 1.20773 1.27669 1.3497 1.42677 0.93434 0.987707 1.0442 1.10381 1.16684 1.23357 1.304 1.37846 1.45729 1.54049 1.00372 1.06108 1.12178 1.18583 1.25353 1.32521 1.40088 1.48087 1.56556 1.65494 1.07255 1.13386 1.19873 1.26717 1.33952 1.41612 1.49697 1.58245 1.67295 1.76846 1.13885 1.20388 1.27272 1.34539 1.42221 1.50355 1.58939 1.68014 1.77623 1.87765 1.20256 1.27107 1.34368 1.4204 1.50155 1.58743 1.67804 1.77385 1.8753 1.98239 -6.69951e-005 -2.05275e-005 1.7406e-006 -1.90882e-007 -1.07742e-005 -1.44618e-005 -1.12536e-005 -7.59457e-006 -9.92984e-006 -1.82594e-005 0.172548 0.182406 0.19284 0.203849 0.215488 0.22781 0.240816 0.254567 0.269125 0.284491 0.323772 0.342252 0.361819 0.382472 0.40431 0.42743 0.451831 0.477631 0.504947 0.533777 0.453218 0.479094 0.506488 0.535399 0.565967 0.598331 0.63249 0.668607 0.706844 0.7472 0.56073 0.592759 0.626661 0.662437 0.700259 0.740303 0.782568 0.827255 0.874565 0.924498 0.647863 0.684878 0.724055 0.765393 0.809095 0.855363 0.904197 0.95583 1.01049 1.06819 0.717034 0.758003 0.801362 0.847113 0.89548 0.946688 1.00074 1.05788 1.11838 1.18224 0.78505 0.829899 0.877369 0.927458 0.980413 1.03648 1.09565 1.15822 1.22446 1.29437 0.855999 0.904889 0.956642 1.01126 1.069 1.13013 1.19465 1.26287 1.33509 1.41132 0.929432 0.982503 1.03869 1.09799 1.16069 1.22706 1.29712 1.37119 1.4496 1.53237 1.0035 1.06082 1.12148 1.18551 1.2532 1.32487 1.40051 1.48048 1.56515 1.65451 1.07802 1.13962 1.20481 1.27359 1.34631 1.4233 1.50456 1.59047 1.68143 1.77743 1.15194 1.21778 1.28745 1.36095 1.43865 1.52092 1.60776 1.69957 1.79677 1.89935 1.22315 1.29299 1.36693 1.44497 1.52749 1.61484 1.70703 1.80451 1.9077 2.01663 1.29158 1.36517 1.44316 1.52557 1.61272 1.70495 1.80228 1.90518 2.01414 2.12916 -7.20077e-005 -2.21193e-005 1.78564e-006 -2.9296e-007 -1.16614e-005 -1.56261e-005 -1.2187e-005 -8.26427e-006 -1.0778e-005 -1.97281e-005 0.185382 0.195971 0.207179 0.219007 0.231512 0.24475 0.258723 0.273496 0.289137 0.305646 0.347853 0.367703 0.388722 0.410911 0.434374 0.459213 0.485429 0.513147 0.542494 0.573469 0.486927 0.514721 0.544149 0.57521 0.608052 0.642822 0.679521 0.718323 0.759403 0.802761 0.602436 0.636839 0.673258 0.711694 0.752331 0.795353 0.84076 0.888769 0.939597 0.993244 0.69605 0.735808 0.777893 0.822306 0.869259 0.918968 0.971433 1.0269 1.08563 1.14762 0.770365 0.81437 0.860948 0.910101 0.962067 1.01708 1.07515 1.13654 1.20154 1.27014 0.84344 0.891613 0.942606 0.99642 1.05331 1.11355 1.17712 1.24434 1.3155 1.39061 0.919666 0.97218 1.02778 1.08645 1.14849 1.21417 1.28349 1.35678 1.43437 1.51627 0.998561 1.05557 1.11593 1.17964 1.247 1.31831 1.39357 1.47315 1.5574 1.64632 1.07814 1.1397 1.20488 1.27366 1.34639 1.42339 1.50465 1.59057 1.68154 1.77755 1.1582 1.22436 1.29439 1.36829 1.44642 1.52913 1.61643 1.70874 1.80646 1.9096 1.23762 1.30834 1.38318 1.46215 1.54563 1.63402 1.72731 1.82594 1.93037 2.04058 1.31413 1.38914 1.46857 1.55242 1.64107 1.73492 1.83397 1.93869 2.04957 2.16659 1.38765 1.46671 1.5505 1.63903 1.73266 1.83176 1.93632 2.04688 2.16394 2.28752 -7.6169e-005 -1.94693e-005 7.87275e-006 5.85703e-006 -6.64207e-006 -1.07502e-005 -6.46727e-006 -1.615e-006 -4.01498e-006 -1.36672e-005 0.199157 0.210529 0.222569 0.235276 0.24871 0.262932 0.277943 0.293813 0.310616 0.328352 0.373701 0.395017 0.417594 0.441432 0.466639 0.493323 0.521486 0.551262 0.582789 0.616066 0.523109 0.552958 0.584566 0.617934 0.653218 0.690572 0.729996 0.771679 0.815811 0.862391 0.647201 0.684149 0.723268 0.764559 0.808217 0.854435 0.903215 0.954789 1.00939 1.06703 0.74777 0.79047 0.835676 0.883388 0.933832 0.987234 1.0436 1.10319 1.16628 1.23287 0.827608 0.874866 0.924898 0.977702 1.03353 1.09264 1.15501 1.22097 1.29079 1.3645 0.906113 0.957847 1.01262 1.07043 1.13156 1.19627 1.26456 1.33677 1.41322 1.49391 0.988003 1.0444 1.10412 1.16715 1.2338 1.30436 1.37882 1.45756 1.54092 1.6289 1.07276 1.13398 1.19882 1.26726 1.33963 1.41624 1.49709 1.58258 1.67308 1.76862 1.15826 1.22437 1.29437 1.36827 1.44641 1.52912 1.61642 1.70872 1.80644 1.90959 1.24426 1.31531 1.39053 1.46992 1.55386 1.64272 1.7365 1.83566 1.94064 2.05144 1.32958 1.40552 1.48591 1.57075 1.66044 1.75539 1.85561 1.96157 2.07375 2.19215 1.41178 1.49234 1.57766 1.66774 1.76298 1.8638 1.97021 2.08271 2.20182 2.32754 1.49077 1.57568 1.66569 1.7608 1.86139 1.96785 2.08018 2.19895 2.32471 2.45747 -7.94789e-005 -1.25774e-005 2.00019e-005 1.82591e-005 4.28385e-006 1.66054e-007 5.90569e-006 1.23532e-005 1.03591e-005 -7.67262e-008 0.213873 0.226082 0.239009 0.252655 0.267083 0.282356 0.298475 0.315517 0.333562 0.352609 0.401315 0.424195 0.448435 0.474033 0.501104 0.52976 0.560002 0.591977 0.625833 0.661569 0.561764 0.593803 0.627739 0.663573 0.701465 0.741578 0.783914 0.828675 0.876067 0.92609 0.695025 0.734688 0.77669 0.821032 0.867918 0.917551 0.969933 1.02532 1.08395 1.14585 0.803026 0.848864 0.897402 0.948639 1.00281 1.06016 1.12068 1.18468 1.25243 1.32394 0.888763 0.939493 0.993211 1.04992 1.10987 1.17334 1.24033 1.31115 1.38614 1.46529 0.973069 1.0286 1.08741 1.14949 1.21514 1.28463 1.35796 1.43551 1.5176 1.60426 1.06101 1.12155 1.18566 1.25336 1.32493 1.4007 1.48067 1.56522 1.65473 1.74922 1.15203 1.21775 1.28736 1.36086 1.43858 1.52085 1.60767 1.69947 1.79666 1.89926 1.24384 1.31481 1.38998 1.46933 1.55325 1.64208 1.73582 1.83493 1.93988 2.05064 1.3362 1.41247 1.49324 1.57849 1.66863 1.76405 1.86476 1.97124 2.08398 2.20297 1.42783 1.50935 1.59566 1.68676 1.78308 1.88505 1.99267 2.10645 2.22692 2.35407 1.5161 1.60258 1.69419 1.79092 1.89321 2.00148 2.11574 2.23654 2.36445 2.49947 1.60093 1.69209 1.78874 1.89087 1.9989 2.11323 2.23386 2.36139 2.49645 2.63902 -8.30021e-005 -5.16499e-006 3.30292e-005 3.15803e-005 1.60246e-005 1.18982e-005 1.9201e-005 2.73602e-005 2.58031e-005 1.45296e-005 0.229612 0.242716 0.256594 0.271244 0.286734 0.303132 0.320436 0.338733 0.358105 0.378555 0.430848 0.455404 0.481423 0.508905 0.537969 0.568734 0.6012 0.635526 0.671873 0.71024 0.603105 0.637491 0.673919 0.712388 0.75307 0.796136 0.841585 0.889638 0.940518 0.994222 0.746173 0.788743 0.833831 0.881436 0.931774 0.98506 1.04129 1.10075 1.1637 1.23015 0.862121 0.911321 0.963424 1.01843 1.07659 1.13816 1.20314 1.27184 1.34457 1.42135 0.954168 1.00862 1.06628 1.12716 1.19153 1.25967 1.33158 1.40761 1.48812 1.57309 1.04468 1.10428 1.16741 1.23406 1.30453 1.37914 1.45787 1.54111 1.62925 1.72228 1.13909 1.20407 1.27289 1.34556 1.42241 1.50376 1.5896 1.68037 1.77647 1.87791 1.23681 1.30735 1.38207 1.46098 1.54442 1.63274 1.72595 1.8245 1.92885 2.03899 1.33538 1.41155 1.49223 1.57743 1.66752 1.76289 1.86352 1.96993 2.08259 2.20151 1.43453 1.51639 1.60309 1.69461 1.79139 1.89384 2.00195 2.11627 2.2373 2.36505 1.5329 1.6204 1.71304 1.81085 1.91426 2.02373 2.13927 2.26142 2.39075 2.52727 1.62767 1.72049 1.81883 1.92267 2.03249 2.14873 2.27139 2.40109 2.53841 2.68336 1.71875 1.81659 1.92034 2.02999 2.14597 2.26871 2.39821 2.53513 2.68012 2.83319 -9.01987e-005 -9.32621e-006 3.02363e-005 2.84889e-005 1.20322e-005 7.46693e-006 1.47931e-005 2.29955e-005 2.10585e-005 8.98236e-006 0.246639 0.260719 0.275627 0.291364 0.308003 0.325617 0.344205 0.363859 0.384668 0.406634 0.462796 0.489184 0.517138 0.546659 0.577878 0.610925 0.645801 0.682675 0.721718 0.762929 0.647827 0.684777 0.723914 0.765238 0.808936 0.855197 0.904018 0.955638 1.01029 1.06798 0.801504 0.847245 0.895684 0.94682 1.00089 1.05813 1.11853 1.1824 1.25003 1.3214 0.92605 0.978913 1.03489 1.09398 1.15645 1.22258 1.29238 1.36618 1.44431 1.52678 1.02492 1.08343 1.14538 1.21077 1.27991 1.35311 1.43035 1.51203 1.5985 1.68978 1.12214 1.18619 1.25401 1.3256 1.4013 1.48144 1.56601 1.65543 1.75011 1.85004 1.22356 1.29337 1.36731 1.44538 1.52792 1.6153 1.70751 1.80501 1.90824 2.0172 1.32852 1.40431 1.48459 1.56935 1.65897 1.75385 1.85397 1.95983 2.07192 2.19023 1.4344 1.51624 1.60292 1.69444 1.79121 1.89365 2.00175 2.11605 2.23707 2.36481 1.54091 1.62887 1.72201 1.82032 1.92427 2.03432 2.15045 2.27325 2.40326 2.54048 1.64657 1.74059 1.84012 1.94518 2.05626 2.17385 2.29796 2.42917 2.5681 2.71473 1.74836 1.8481 1.95374 2.06529 2.18325 2.30811 2.43987 2.57918 2.72669 2.88239 1.84619 1.95131 2.06275 2.18054 2.30512 2.43696 2.57607 2.72314 2.87888 3.0433 -0.000101335 -2.59914e-005 1.03374e-005 7.65152e-006 -8.96641e-006 -1.44338e-005 -8.75053e-006 -2.31112e-006 -5.50994e-006 -1.8347e-005 0.264973 0.28011 0.296133 0.31304 0.330914 0.349838 0.36981 0.390927 0.413284 0.436881 0.497199 0.525577 0.555626 0.587344 0.620882 0.656388 0.693861 0.733481 0.775429 0.819703 0.695983 0.73572 0.777788 0.822188 0.869132 0.918833 0.971291 1.02675 1.08547 1.14745 0.861084 0.910265 0.962325 1.01727 1.07535 1.13684 1.20175 1.27037 1.34302 1.4197 0.994889 1.05172 1.11188 1.17536 1.24248 1.31353 1.38852 1.46781 1.55175 1.64035 1.10111 1.16402 1.2306 1.30086 1.37513 1.45377 1.53677 1.62452 1.71743 1.81548 1.20556 1.27442 1.34732 1.42424 1.50556 1.59165 1.68253 1.7786 1.88032 1.98768 1.31451 1.38958 1.46905 1.55292 1.64159 1.73547 1.83455 1.93931 2.05022 2.16727 1.42728 1.50877 1.59505 1.68611 1.78239 1.88432 1.9919 2.10564 2.22606 2.35316 1.54103 1.62903 1.72219 1.82051 1.92447 2.03452 2.15067 2.27348 2.4035 2.54073 1.65545 1.75004 1.85014 1.95577 2.06744 2.18566 2.31045 2.44239 2.58206 2.72948 1.76897 1.87007 1.97705 2.08992 2.20925 2.33558 2.46893 2.60992 2.75918 2.9167 1.87833 1.98556 2.0991 2.21894 2.34566 2.4798 2.62137 2.77106 2.92953 3.0968 1.98342 2.0964 2.21617 2.34271 2.47654 2.61818 2.76764 2.92565 3.09298 3.26961 -0.000116411 -5.51605e-005 -2.66676e-005 -3.09317e-005 -4.69711e-005 -5.38039e-005 -5.143e-005 -4.85595e-005 -5.39023e-005 -6.74584e-005 0.284615 0.300891 0.31811 0.336272 0.355469 0.375796 0.397252 0.419937 0.443953 0.469297 0.534056 0.564585 0.596886 0.63096 0.666981 0.705121 0.74538 0.787946 0.833006 0.880561 0.747574 0.790319 0.83554 0.883238 0.933658 0.987046 1.0434 1.10299 1.16607 1.23263 0.924914 0.977803 1.03376 1.09277 1.15516 1.22121 1.29094 1.36466 1.4427 1.52506 1.06864 1.12975 1.19441 1.2626 1.33467 1.411 1.49156 1.57674 1.66691 1.76207 1.18274 1.25039 1.32195 1.39742 1.47719 1.56166 1.65083 1.7451 1.8449 1.95022 1.29493 1.36899 1.44734 1.52996 1.6173 1.70979 1.80741 1.91063 2.01989 2.1352 1.41195 1.49269 1.57811 1.6682 1.76343 1.86427 1.97072 2.08326 2.20239 2.32812 1.53308 1.62071 1.71344 1.81126 1.91467 2.02416 2.13973 2.26192 2.39128 2.52779 1.65526 1.7499 1.85002 1.95564 2.06729 2.1855 2.31029 2.44222 2.58188 2.72928 1.77817 1.87989 1.98749 2.10095 2.22088 2.34788 2.48194 2.62368 2.77372 2.93206 1.90011 2.00884 2.12383 2.24508 2.37323 2.50893 2.65219 2.80365 2.96398 3.13318 2.01756 2.13287 2.2549 2.38363 2.51973 2.66382 2.81591 2.97671 3.14694 3.3266 2.13043 2.25188 2.38057 2.5165 2.66024 2.81238 2.97293 3.14268 3.32241 3.51213 -0.000135426 -9.68336e-005 -8.07786e-005 -8.72609e-005 -0.000101982 -0.000110643 -0.000113245 -0.00011575 -0.000124119 -0.000138352 0.305566 0.323062 0.34156 0.361059 0.381666 0.40349 0.42653 0.45089 0.476674 0.503882 0.573368 0.606205 0.640918 0.677507 0.716174 0.757124 0.800358 0.846068 0.89445 0.945503 0.8026 0.848575 0.897171 0.948388 1.00251 1.05984 1.12036 1.18434 1.25207 1.32353 0.992993 1.04986 1.10998 1.17334 1.24031 1.31123 1.3861 1.46526 1.54906 1.63747 1.1473 1.213 1.28246 1.35567 1.43305 1.51499 1.60149 1.69296 1.78977 1.89193 1.26979 1.34254 1.41942 1.50045 1.58609 1.67678 1.77252 1.87376 1.98091 2.09397 1.39024 1.46989 1.55407 1.64279 1.73654 1.83583 1.94066 2.0515 2.16882 2.2926 1.51588 1.6027 1.69448 1.79121 1.89344 2.0017 2.11601 2.23686 2.36477 2.49974 1.64592 1.74015 1.83978 1.94481 2.05581 2.17336 2.29746 2.42867 2.56756 2.71411 1.7771 1.87885 1.98643 2.09983 2.21968 2.3466 2.4806 2.62227 2.77222 2.93046 1.90906 2.01845 2.13405 2.25588 2.38462 2.52096 2.66492 2.81712 2.97822 3.1482 2.03997 2.1569 2.28046 2.41064 2.5482 2.6939 2.84773 3.01038 3.18253 3.36416 2.16606 2.29004 2.42114 2.55936 2.70545 2.86015 3.02346 3.19614 3.37891 3.57178 2.28722 2.41775 2.55598 2.70191 2.85621 3.01956 3.19194 3.3742 3.56717 3.77085 </DataArray> 
</PointData> 
<Points> 
<DataArray type="Float32" NumberOfComponents="3"> 