<?xml version="1.0"?> 
<VTKFile type="StructuredGrid" version="0.1"> 
<StructuredGrid WholeExtent="0 9 0 14 0 14"> 
<Piece Extent="0 9 0 14 0 14"> 
<PointData Scalars="u">
<DataArray type="Float32" Name="u" format="ascii" NumberOfComponents="1"> 
-5.58302e-005 -5.52786e-005 -5.84187e-005 -6.52504e-005 -7.13754e-005 -7.2395e-005 -6.83093e-005 -7.1616e-005 -9.48129e-005 -0.0001379 0.185375 0.195955 0.207161 0.218993 0.231501 0.244737 0.258699 0.27347 0.289134 0.305689 0.347839 0.367691 0.388718 0.41092 0.434391 0.459225 0.485424 0.513141 0.542532 0.573597 0.486912 0.514702 0.544136 0.575214 0.608068 0.642833 0.679508 0.718307 0.759445 0.802921 0.602419 0.636803 0.673219 0.711669 0.752317 0.795329 0.840704 0.888708 0.939604 0.993393 0.696027 0.735753 0.777828 0.822253 0.869217 0.918912 0.971337 1.0268 1.08561 1.14776 0.770333 0.814298 0.860865 0.910033 0.962012 1.01701 1.07503 1.13642 1.2015 1.2703 0.843405 0.891541 0.942525 0.996357 1.05327 1.11348 1.17701 1.24421 1.31548 1.3908 0.919638 0.972126 1.02772 1.08641 1.14847 1.21413 1.2834 1.35668 1.43438 1.51649 0.998544 1.05554 1.1159 1.17963 1.24701 1.3183 1.39352 1.47309 1.55744 1.64659 1.07812 1.13965 1.20482 1.27363 1.34638 1.42336 1.50456 1.59047 1.68156 1.77782 1.15814 1.22424 1.29425 1.36817 1.44632 1.52901 1.61623 1.70852 1.80638 1.90981 1.23754 1.30817 1.38298 1.46197 1.54548 1.63383 1.72704 1.82565 1.93023 2.04077 1.31411 1.38912 1.46856 1.55243 1.6411 1.73493 1.83391 1.93863 2.04964 2.16695 1.38779 1.46701 1.5509 1.63947 1.7331 1.83219 1.93676 2.04735 2.16452 2.28826 -2.42222e-005 -1.80818e-005 -1.90738e-005 -2.71982e-005 -3.35781e-005 -2.93367e-005 -1.44739e-005 -1.41055e-005 -5.33472e-005 -0.000132199 0.199044 0.210407 0.222439 0.235142 0.248571 0.262785 0.277782 0.293642 0.310447 0.328195 0.373467 0.394786 0.417363 0.441197 0.466395 0.493063 0.521201 0.550964 0.582507 0.61583 0.522791 0.552635 0.584239 0.617601 0.652873 0.690205 0.729597 0.771261 0.815409 0.862042 0.646828 0.683753 0.722855 0.764133 0.807773 0.853962 0.902699 0.954244 1.00886 1.06654 0.747349 0.790012 0.83519 0.882883 0.933306 0.986672 1.04298 1.10253 1.16563 1.23227 0.827136 0.874354 0.924355 0.977139 1.03294 1.09201 1.15433 1.22024 1.29008 1.36383 0.905588 0.957285 1.01203 1.06982 1.13092 1.19558 1.26381 1.33598 1.41244 1.4932 0.987427 1.0438 1.10349 1.1665 1.23312 1.30363 1.37803 1.45671 1.54009 1.62815 1.07213 1.13334 1.19815 1.26657 1.3389 1.41546 1.49624 1.58168 1.6722 1.76782 1.15758 1.22366 1.29364 1.36751 1.44561 1.52827 1.61549 1.70774 1.80548 1.90871 1.24354 1.31453 1.38971 1.46906 1.55296 1.64176 1.73546 1.83455 1.93955 2.05044 1.32882 1.40468 1.48501 1.56981 1.65946 1.75435 1.85447 1.96036 2.07255 2.19105 1.41095 1.4915 1.57679 1.66683 1.76203 1.86278 1.96908 2.08152 2.20065 2.32649 1.48986 1.5749 1.66496 1.76004 1.86057 1.96695 2.07919 2.19791 2.32373 2.45664 -3.86562e-006 6.17009e-006 6.58008e-006 -2.63565e-006 -9.36649e-006 -1.50183e-006 2.09583e-005 2.37841e-005 -2.72545e-005 -0.000132157 0.213828 0.226036 0.238962 0.252607 0.267033 0.282303 0.298419 0.315458 0.3335 0.352546 0.401192 0.424097 0.44835 0.473951 0.501018 0.529669 0.559904 0.591879 0.625752 0.661524 0.561603 0.593668 0.627619 0.663454 0.701342 0.74145 0.783777 0.828539 0.875948 0.926006 0.694862 0.734534 0.77654 0.820879 0.867757 0.91738 0.969749 1.02512 1.08376 1.14567 0.802856 0.848695 0.897228 0.948458 1.00262 1.05996 1.12046 1.18444 1.25219 1.3237 0.88857 0.939303 0.993019 1.04972 1.10966 1.17312 1.24009 1.3109 1.38588 1.46503 0.972846 1.02839 1.0872 1.14928 1.21491 1.28438 1.3577 1.43523 1.51733 1.604 1.06075 1.12131 1.18544 1.25312 1.32469 1.40044 1.48038 1.56491 1.65444 1.74896 1.15174 1.21749 1.28712 1.36061 1.43831 1.52056 1.60735 1.69914 1.79635 1.89899 1.24354 1.31454 1.38971 1.46906 1.55295 1.64176 1.73547 1.83457 1.93952 2.05033 1.33591 1.41219 1.49294 1.57819 1.66831 1.76371 1.86439 1.97085 2.08359 2.20259 1.42754 1.50905 1.59534 1.68643 1.78273 1.88468 1.99227 2.10603 2.22649 2.35364 1.51571 1.60224 1.69387 1.79058 1.89284 2.00108 2.1153 2.23608 2.36402 2.4991 1.60033 1.69168 1.78842 1.89056 1.99853 2.1128 2.23336 2.36089 2.49605 2.63886 5.23952e-006 1.74771e-005 1.85431e-005 8.43729e-006 1.25957e-006 1.11096e-005 3.79874e-005 4.20527e-005 -1.65347e-005 -0.000137775 0.229726 0.242842 0.25673 0.271388 0.286886 0.303293 0.320609 0.338916 0.358293 0.378742 0.431014 0.455623 0.481679 0.509182 0.53826 0.569043 0.60153 0.635884 0.672267 0.710678 0.60335 0.637802 0.674276 0.712773 0.753476 0.796568 0.84205 0.890141 0.941062 0.994813 0.74652 0.789146 0.834275 0.881907 0.932267 0.985584 1.04186 1.10135 1.16433 1.2308 0.862548 0.911799 0.963942 1.01898 1.07716 1.13877 1.20378 1.27252 1.34527 1.42206 0.954637 1.00915 1.06686 1.12777 1.19217 1.26034 1.3323 1.40838 1.48891 1.57389 1.04518 1.10486 1.16804 1.23473 1.30523 1.37988 1.45866 1.54195 1.63013 1.72319 1.13961 1.20468 1.27358 1.34629 1.42317 1.50455 1.59045 1.68127 1.77742 1.87891 1.23736 1.30801 1.38281 1.46176 1.54523 1.6336 1.72686 1.82547 1.92988 2.04009 1.33599 1.41227 1.49303 1.57828 1.6684 1.76381 1.86451 1.97098 2.0837 2.20268 1.43524 1.5172 1.60396 1.69553 1.79235 1.89485 2.00304 2.11742 2.23849 2.36626 1.53369 1.62127 1.71398 1.81183 1.91529 2.02483 2.14044 2.26267 2.39203 2.52853 1.62838 1.72135 1.81979 1.92369 2.03355 2.14984 2.27256 2.40233 2.53974 2.68479 1.71922 1.81735 1.92128 2.031 2.147 2.26976 2.39927 2.53627 2.68148 2.8349 3.09324e-006 1.58393e-005 1.68151e-005 6.0206e-006 -1.69996e-006 8.49763e-006 3.66134e-005 4.07004e-005 -2.1188e-005 -0.000149052 0.246737 0.260826 0.275742 0.291485 0.308131 0.325754 0.344354 0.364017 0.384826 0.406782 0.462932 0.489365 0.517351 0.546889 0.57812 0.611184 0.646081 0.682981 0.722051 0.763293 0.64803 0.685035 0.724211 0.765557 0.809273 0.855559 0.904414 0.956068 1.01075 1.06846 0.801803 0.847588 0.896059 0.947216 1.00131 1.05857 1.11902 1.18292 1.25055 1.32192 0.926425 0.979326 1.03533 1.09444 1.15693 1.2231 1.29294 1.36676 1.4449 1.52734 1.02534 1.08389 1.14587 1.21129 1.28045 1.35368 1.43098 1.51269 1.59917 1.69042 1.12258 1.18668 1.25455 1.32617 1.40189 1.48207 1.5667 1.65616 1.75085 1.85076 1.22401 1.2939 1.3679 1.44599 1.52856 1.61598 1.70825 1.80579 1.90905 2.01802 1.32899 1.40487 1.48521 1.57001 1.65966 1.75458 1.85475 1.96066 2.07279 2.19113 1.43493 1.51686 1.6036 1.69516 1.79196 1.89444 2.0026 2.11695 2.23801 2.36576 1.54154 1.62956 1.72275 1.8211 1.92509 2.03519 2.1514 2.27425 2.40427 2.54144 1.64728 1.74135 1.84093 1.94602 2.05714 2.17479 2.29898 2.43026 2.56918 2.71573 1.74897 1.84883 1.95456 2.06615 2.18414 2.30904 2.44087 2.58025 2.72781 2.88356 1.84651 1.95192 2.06354 2.18138 2.30597 2.43782 2.57692 2.72407 2.88002 3.04478 -9.26109e-006 2.46358e-006 2.67276e-006 -8.63355e-006 -1.69881e-005 -7.92376e-006 1.85596e-005 2.15655e-005 -3.98022e-005 -0.000165544 0.264887 0.280013 0.296026 0.312927 0.330797 0.349717 0.369687 0.390797 0.413136 0.436706 0.496991 0.525371 0.555416 0.587127 0.620655 0.656153 0.69362 0.733234 0.775176 0.819444 0.695707 0.735435 0.777493 0.821881 0.868813 0.918506 0.970957 1.02641 1.08511 1.14706 0.860789 0.909943 0.96198 1.0169 1.07497 1.13645 1.20134 1.26995 1.34255 1.41917 0.994577 1.05137 1.1115 1.17495 1.24204 1.31308 1.38806 1.46732 1.5512 1.63969 1.10077 1.16363 1.23017 1.3004 1.37465 1.45327 1.53626 1.62398 1.71682 1.81477 1.20517 1.27399 1.34684 1.42373 1.50503 1.59111 1.68196 1.77801 1.87966 1.98691 1.31406 1.3891 1.46854 1.55237 1.64102 1.73487 1.83393 1.93865 2.0495 2.16647 1.42677 1.50824 1.59449 1.68552 1.78177 1.88367 1.99122 2.10492 2.22529 2.35231 1.54049 1.62846 1.72159 1.81987 1.92379 2.03381 2.14994 2.27271 2.40266 2.53979 1.65494 1.74945 1.8495 1.95508 2.06671 2.18491 2.30968 2.44157 2.58114 2.7284 1.76846 1.86946 1.97636 2.08919 2.20848 2.33479 2.46812 2.60906 2.75818 2.9155 1.87765 1.98486 2.09837 2.21817 2.34483 2.47893 2.62046 2.7701 2.9285 3.09569 1.98239 2.09556 2.21539 2.34191 2.47566 2.61721 2.76656 2.92454 3.09194 3.26878 -1.82594e-005 -6.95962e-006 -7.28877e-006 -1.92469e-005 -2.82645e-005 -1.97723e-005 6.22979e-006 8.54581e-006 -5.40201e-005 -0.000181468 0.284491 0.300736 0.317935 0.336087 0.35528 0.3756 0.397047 0.41972 0.443715 0.469032 0.533777 0.564257 0.596526 0.630584 0.666594 0.70472 0.74496 0.787507 0.832553 0.8801 0.7472 0.789869 0.83504 0.882713 0.93312 0.98649 1.04282 1.10238 1.16543 1.23197 0.924498 0.97729 1.03318 1.09216 1.15453 1.22056 1.29026 1.36394 1.44192 1.52421 1.06819 1.12918 1.19376 1.26191 1.33397 1.41026 1.49079 1.57591 1.66601 1.76106 1.18224 1.24975 1.32122 1.39664 1.47639 1.56083 1.64996 1.74418 1.84389 1.9491 1.29437 1.36828 1.44653 1.52911 1.61642 1.70887 1.80645 1.9096 2.01878 2.13398 1.41132 1.49191 1.57723 1.66727 1.76248 1.86328 1.96967 2.08214 2.2012 2.32683 1.53237 1.61987 1.7125 1.81027 1.91365 2.02309 2.1386 2.26072 2.39 2.52643 1.65451 1.74899 1.84901 1.95457 2.06618 2.18435 2.30907 2.44092 2.5805 2.72779 1.77743 1.87893 1.98638 2.09978 2.21968 2.34662 2.48062 2.62228 2.77219 2.93035 1.89935 2.00781 2.12263 2.24381 2.37193 2.50759 2.65078 2.80215 2.96233 3.13131 2.01663 2.13178 2.25369 2.38235 2.5184 2.66242 2.81442 2.97513 3.14527 3.32483 2.12916 2.2507 2.37941 2.51529 2.65894 2.81097 2.97139 3.14106 3.32085 3.51075 -1.97281e-005 -7.60244e-006 -7.96329e-006 -2.08106e-005 -3.05012e-005 -2.13918e-005 6.51756e-006 8.9945e-006 -5.81935e-005 -0.000195046 0.305646 0.323099 0.341576 0.361079 0.381699 0.403529 0.42657 0.450929 0.476711 0.503918 0.573469 0.606213 0.640882 0.677474 0.716163 0.757122 0.800352 0.846063 0.894465 0.94556 0.802761 0.848601 0.897131 0.948351 1.00251 1.05984 1.12036 1.18435 1.2521 1.3236 0.993244 1.04996 1.11 1.17338 1.24038 1.31132 1.3862 1.46536 1.54915 1.63758 1.14762 1.21315 1.28252 1.35575 1.43317 1.51513 1.60164 1.69309 1.7899 1.89205 1.27014 1.34267 1.41946 1.5005 1.58618 1.67689 1.77264 1.87386 1.98101 2.09407 1.39061 1.47002 1.55409 1.64281 1.73662 1.83594 1.94077 2.05159 2.1689 2.2927 1.51627 1.60285 1.69451 1.79125 1.89354 2.00183 2.11612 2.23696 2.36489 2.4999 1.64632 1.74032 1.83985 1.94489 2.05595 2.17353 2.29762 2.42882 2.56773 2.71435 1.77755 1.87904 1.9865 2.09991 2.21983 2.34678 2.48076 2.62243 2.7724 2.93068 1.9096 2.01864 2.13408 2.25591 2.38473 2.52112 2.66507 2.81725 2.97833 3.1483 2.04058 2.1571 2.28046 2.41065 2.5483 2.69404 2.84788 3.0105 3.18261 3.36421 2.16659 2.2903 2.42127 2.55951 2.70567 2.8604 3.0237 3.19636 3.37917 3.57213 2.28752 2.4181 2.55638 2.70237 2.8567 3.02005 3.19239 3.37468 3.56784 3.77188 -1.36672e-005 5.35101e-007 6.49219e-007 -1.33249e-005 -2.36983e-005 -1.27824e-005 1.94229e-005 2.29116e-005 -5.23222e-005 -0.000206278 0.328352 0.3471 0.36695 0.387902 0.410055 0.433506 0.458257 0.484424 0.512126 0.541363 0.616066 0.651241 0.688484 0.727796 0.76936 0.81336 0.859796 0.908902 0.960911 1.01582 0.862391 0.911634 0.963768 1.0188 1.07698 1.13857 1.20358 1.27232 1.34511 1.42196 1.06703 1.12795 1.19246 1.26054 1.33253 1.40873 1.48916 1.5742 1.66424 1.75927 1.23287 1.30326 1.37779 1.45646 1.53963 1.62768 1.72061 1.81886 1.92287 2.03265 1.3645 1.44241 1.52489 1.61196 1.70401 1.80146 1.90431 2.01305 2.12817 2.24967 1.49391 1.57921 1.66952 1.76484 1.86562 1.97231 2.08492 2.20398 2.33003 2.46307 1.6289 1.7219 1.82037 1.92431 2.0342 2.15053 2.2733 2.40312 2.54057 2.68566 1.76862 1.8696 1.97651 2.08936 2.20868 2.33499 2.46829 2.60923 2.75849 2.91605 1.90959 2.01862 2.13406 2.2559 2.38473 2.5211 2.66503 2.81721 2.97835 3.14845 2.05144 2.16858 2.29259 2.42348 2.56187 2.70839 2.86302 3.02651 3.19958 3.38225 2.19215 2.31733 2.44985 2.58971 2.73759 2.89416 3.0594 3.2341 3.41903 3.6142 2.32754 2.46043 2.60113 2.74965 2.90667 3.07289 3.24831 3.43379 3.63021 3.83757 2.45747 2.59775 2.74631 2.90314 3.06895 3.24442 3.42956 3.62539 3.83293 4.05217 -7.67262e-008 1.7453e-005 1.85487e-005 3.21048e-006 -7.85578e-006 6.05596e-006 4.49457e-005 5.02971e-005 -3.64063e-005 -0.000215164 0.352609 0.372741 0.394057 0.416558 0.440348 0.465531 0.492106 0.520206 0.54996 0.581369 0.661569 0.699339 0.739333 0.781551 0.826186 0.873434 0.923293 0.976025 1.03189 1.09089 0.92609 0.978965 1.03495 1.09404 1.15652 1.22267 1.29247 1.36628 1.44447 1.52704 1.14585 1.21127 1.28054 1.35366 1.43096 1.51279 1.59915 1.69047 1.78718 1.88928 1.32394 1.39953 1.47957 1.56405 1.65337 1.74792 1.8477 1.9532 2.06492 2.18285 1.46529 1.54895 1.63753 1.73102 1.82988 1.93452 2.04496 2.16173 2.28538 2.41592 1.60426 1.69585 1.79283 1.8952 2.00343 2.118 2.2389 2.36675 2.50215 2.64509 1.74922 1.84909 1.95483 2.06645 2.18446 2.30937 2.4412 2.5806 2.72825 2.88413 1.89926 2.00769 2.1225 2.2437 2.37183 2.50746 2.65059 2.80195 2.96226 3.13154 2.05064 2.16772 2.29169 2.42254 2.56088 2.70733 2.86187 3.02529 3.19837 3.38112 2.20297 2.32875 2.46193 2.60249 2.75111 2.90844 3.07447 3.25003 3.43594 3.6322 2.35407 2.48848 2.63079 2.781 2.93981 3.10793 3.28535 3.47295 3.6716 3.88128 2.49947 2.64217 2.79326 2.95276 3.12138 3.29987 3.48823 3.68741 3.89839 4.12116 2.63902 2.78965 2.94918 3.11761 3.29567 3.4841 3.6829 3.8932 4.1161 4.35162 1.45296e-005 3.5628e-005 3.77782e-005 2.09804e-005 9.17433e-006 2.62999e-005 7.2357e-005 7.9708e-005 -1.92851e-005 -0.000224622 0.378555 0.400166 0.42305 0.447208 0.472749 0.499783 0.528312 0.558478 0.590425 0.624154 0.71024 0.750786 0.793722 0.839048 0.886968 0.937689 0.991211 1.04782 1.10781 1.17117 0.994222 1.05098 1.11109 1.17453 1.24161 1.31261 1.38754 1.46679 1.55075 1.63942 1.23015 1.30038 1.37475 1.45325 1.53624 1.62409 1.7168 1.81484 1.91868 2.02832 1.42135 1.5025 1.58842 1.67912 1.77501 1.87652 1.98363 2.0969 2.21685 2.3435 1.57309 1.6629 1.758 1.85838 1.96451 2.07685 2.1954 2.32076 2.45353 2.59372 1.72228 1.82061 1.92473 2.03463 2.15082 2.27382 2.40361 2.54086 2.68624 2.83976 1.87791 1.98512 2.09864 2.21848 2.34517 2.47927 2.62079 2.77044 2.92898 3.09639 2.03899 2.15539 2.27865 2.40877 2.54633 2.69194 2.84558 3.00808 3.18022 3.36201 2.20151 2.3272 2.46028 2.60077 2.74929 2.90651 3.0724 3.24785 3.4337 3.62995 2.36505 2.50007 2.64305 2.79396 2.95352 3.12241 3.30064 3.48912 3.68874 3.89951 2.52727 2.67156 2.82433 2.9856 3.15609 3.33657 3.52704 3.72844 3.94174 4.16693 2.68336 2.83655 2.99876 3.17 3.35103 3.54265 3.74484 3.95868 4.18522 4.42446 2.83319 2.9949 3.16616 3.34699 3.53815 3.74044 3.95386 4.17962 4.41896 4.67187 8.98236e-006 3.06094e-005 3.24774e-005 1.45863e-005 1.87278e-006 1.92731e-005 6.67873e-005 7.39545e-005 -2.96863e-005 -0.000244135 0.406634 0.429849 0.454431 0.480379 0.507814 0.536854 0.567501 0.599904 0.634216 0.670436 0.762929 0.806486 0.852607 0.901293 0.952766 1.00725 1.06475 1.12556 1.18998 1.25802 1.06798 1.12895 1.19352 1.26166 1.33372 1.40999 1.49048 1.57561 1.66578 1.76099 1.3214 1.39685 1.47673 1.56105 1.65019 1.74456 1.84415 1.94946 2.06098 2.17872 1.52678 1.61395 1.70624 1.80367 1.90667 2.0157 2.13077 2.25244 2.38127 2.51728 1.68978 1.78625 1.8884 1.99623 2.11022 2.2309 2.35825 2.49291 2.63551 2.78605 1.85004 1.95566 2.0675 2.18555 2.31036 2.44248 2.58191 2.72935 2.88549 3.05033 2.0172 2.13237 2.25432 2.38303 2.51912 2.66318 2.8152 2.97596 3.14622 3.32599 2.19023 2.31527 2.44768 2.58744 2.7352 2.89161 3.05667 3.23121 3.41609 3.6113 2.36481 2.49982 2.64278 2.79368 2.95322 3.1221 3.30031 3.48877 3.68837 3.89912 2.54048 2.68553 2.83911 3.00121 3.17259 3.35402 3.54549 3.74795 3.96234 4.18867 2.71473 2.86973 3.03384 3.20706 3.3902 3.58408 3.78869 4.00503 4.23411 4.47591 2.88239 3.04695 3.22119 3.40512 3.59958 3.80542 4.02262 4.25232 4.49563 4.75254 3.0433 3.217 3.40097 3.5952 3.80054 4.01784 4.24709 4.4896 4.74666 5.01829 -1.8347e-005 5.16284e-007 6.568e-007 -1.79254e-005 -3.17234e-005 -1.72302e-005 2.55543e-005 3.01759e-005 -6.98197e-005 -0.000274432 0.436881 0.461827 0.488238 0.516113 0.545585 0.576788 0.609721 0.644536 0.681386 0.720269 0.819703 0.866508 0.916061 0.968363 1.02366 1.08221 1.14399 1.20933 1.2785 1.35153 1.14745 1.21297 1.28234 1.35555 1.43295 1.51491 1.60141 1.69287 1.78969 1.89188 1.4197 1.50077 1.5866 1.67718 1.77295 1.87435 1.98137 2.09451 2.21428 2.34066 1.64035 1.73402 1.83318 1.93784 2.04849 2.16565 2.2893 2.42002 2.55838 2.70438 1.81548 1.91915 2.0289 2.14474 2.2672 2.39687 2.53373 2.67841 2.83154 2.99313 1.98768 2.10118 2.22134 2.34815 2.48224 2.6242 2.77404 2.93245 3.10012 3.27705 2.16727 2.29103 2.42205 2.56032 2.70653 2.86131 3.02468 3.1974 3.38024 3.57321 2.35316 2.48753 2.62978 2.77992 2.93867 3.10673 3.2841 3.47163 3.67017 3.87972 2.54073 2.68581 2.8394 3.00151 3.1729 3.35436 3.54588 3.74836 3.96271 4.18893 2.72948 2.88535 3.05035 3.22449 3.40861 3.60356 3.80932 4.02685 4.25707 4.5 2.9167 3.08326 3.25958 3.44567 3.64242 3.85073 4.07062 4.30307 4.54906 4.8086 3.0968 3.27362 3.46083 3.65842 3.86734 4.0885 4.32191 4.56871 4.83 5.10578 3.26961 3.45625 3.6539 3.86256 4.08316 4.31663 4.56296 4.82351 5.09961 5.39128 -6.74584e-005 -5.46512e-005 -5.76834e-005 -7.65549e-005 -9.16143e-005 -8.321e-005 -5.1342e-005 -5.16279e-005 -0.000139685 -0.000315514 0.469297 0.4961 0.52447 0.554408 0.586064 0.619585 0.654973 0.692373 0.731933 0.773654 0.880561 0.930852 0.984084 1.04026 1.09966 1.16255 1.22895 1.29913 1.37338 1.4517 1.23263 1.30303 1.37755 1.45618 1.53932 1.62737 1.72033 1.81857 1.92249 2.03209 1.52506 1.61216 1.70436 1.80164 1.90451 2.01345 2.12845 2.24999 2.37855 2.51414 1.76207 1.8627 1.96922 2.08163 2.20048 2.32635 2.45922 2.59965 2.74818 2.90482 1.95022 2.0616 2.1795 2.30391 2.43545 2.57475 2.72182 2.87725 3.04163 3.21497 2.1352 2.25715 2.38623 2.52243 2.66645 2.81897 2.97999 3.15016 3.33014 3.51993 2.32812 2.46109 2.60183 2.75035 2.90738 3.07368 3.24923 3.43478 3.63104 3.83803 2.52779 2.67215 2.82497 2.98623 3.15673 3.33728 3.52788 3.72934 3.94247 4.16727 2.72928 2.88515 3.05015 3.22426 3.40835 3.6033 3.8091 4.02661 4.25671 4.49939 2.93206 3.09952 3.27677 3.46381 3.66157 3.87101 4.09213 4.32581 4.57294 4.83352 3.13318 3.31214 3.50155 3.70141 3.91274 4.13655 4.37285 4.62256 4.8866 5.16499 3.3266 3.51658 3.71768 3.9299 4.15429 4.3919 4.64271 4.90783 5.18832 5.4842 3.51213 3.71264 3.92495 4.14907 4.38601 4.63681 4.90147 5.18135 5.47781 5.79086 -0.000138352 -0.000134893 -0.000142543 -0.000161302 -0.0001778 -0.000178666 -0.000163902 -0.000171457 -0.000239283 -0.00036738 0.503882 0.532666 0.563128 0.595266 0.629249 0.665246 0.703256 0.743415 0.78586 0.830589 0.945503 0.999518 1.05668 1.11698 1.18075 1.24829 1.31962 1.39498 1.47461 1.55853 1.32353 1.39914 1.47916 1.56357 1.65283 1.74738 1.84723 1.95272 2.06419 2.18163 1.63747 1.73102 1.83001 1.93445 2.04488 2.16186 2.28539 2.4159 2.55382 2.69915 1.89193 2.00001 2.11438 2.23505 2.36264 2.4978 2.64053 2.79131 2.95067 3.11859 2.09397 2.2136 2.34019 2.47374 2.61495 2.76455 2.92253 3.08942 3.26577 3.45156 2.2926 2.42358 2.56218 2.70839 2.86301 3.0268 3.19976 3.38248 3.57555 3.77897 2.49974 2.64255 2.79367 2.9531 3.12169 3.30027 3.48885 3.68808 3.89862 4.12048 2.71411 2.86916 3.03324 3.20635 3.3894 3.58329 3.78802 4.00433 4.23297 4.47394 2.93046 3.09786 3.27502 3.46192 3.65956 3.86891 4.08997 4.32353 4.57037 4.83051 3.1482 3.32806 3.51838 3.71916 3.93148 4.15639 4.39392 4.64483 4.90993 5.18922 3.36416 3.55637 3.75975 3.9743 4.20117 4.44152 4.69536 4.96349 5.24673 5.54508 3.57178 3.77581 3.99174 4.21956 4.46045 4.71561 4.98502 5.26969 5.57061 5.88778 3.77085 3.98616 4.21411 4.45471 4.70909 4.97839 5.26263 5.56313 5.88126 6.21701 </DataArray> 
</PointData> 
<Points> 
<DataArray type="Float32" NumberOfComponents="3"> 