<?xml version="1.0"?> 
<VTKFile type="StructuredGrid" version="0.1"> 
<StructuredGrid WholeExtent="0 19 0 19 0 0"> 
<Piece Extent="0 19 0 19 0 0"> 
<PointData Scalars="u">
<DataArray type="Float32" Name="u" format="ascii" NumberOfComponents="1"> 
-1.64892e-010 -1.65045e-010 -1.6556e-010 -1.66351e-010 -1.67453e-010 -1.68918e-010 -1.70636e-010 -1.72432e-010 -1.74324e-010 -1.7643e-010 -1.78392e-010 -1.79463e-010 -1.7941e-010 -1.78584e-010 -1.75987e-010 -1.6849e-010 -1.54234e-010 -1.34408e-010 -9.83199e-011 0 -0.0193531 -0.0193263 -0.0192398 -0.0190875 -0.0188623 -0.0185569 -0.0181632 -0.0176727 -0.0170759 -0.0163629 -0.0155229 -0.0145441 -0.0134141 -0.0121193 -0.0106454 -0.00897661 -0.0070964 -0.00498658 -0.00262808 -1.43493e-010 -0.0386527 -0.0386046 -0.038437 -0.0381375 -0.037692 -0.0370859 -0.0363029 -0.0353259 -0.034136 -0.0327133 -0.0310361 -0.029081 -0.0268231 -0.0242353 -0.0212887 -0.0179521 -0.0141923 -0.009973 -0.00525613 -2.49086e-010 -0.0578452 -0.0577868 -0.057549 -0.0571126 -0.0564567 -0.0555592 -0.0543955 -0.05294 -0.0511644 -0.0490386 -0.04653 -0.0436037 -0.0402221 -0.0363445 -0.031928 -0.0269254 -0.0212873 -0.0149591 -0.00788415 -3.42369e-010 -0.0768775 -0.0768255 -0.0765334 -0.0759756 -0.0751239 -0.0739489 -0.0724176 -0.0704957 -0.0681453 -0.0653263 -0.061995 -0.0581049 -0.0536059 -0.0484438 -0.0425611 -0.0358954 -0.0283807 -0.0199448 -0.0105121 -4.33072e-010 -0.0956968 -0.0956732 -0.095348 -0.0946893 -0.0936615 -0.0922273 -0.0903458 -0.0879735 -0.0850629 -0.0815638 -0.0774215 -0.0725776 -0.0669695 -0.0605296 -0.0531861 -0.044861 -0.0354722 -0.0249298 -0.01314 -5.24113e-010 -0.114251 -0.114283 -0.113951 -0.113217 -0.112037 -0.110367 -0.108157 -0.105354 -0.101902 -0.0977387 -0.0927999 -0.0870147 -0.080308 -0.0725988 -0.0638009 -0.0538211 -0.0425613 -0.0299141 -0.0157677 -6.08097e-010 -0.132489 -0.132609 -0.132302 -0.131522 -0.13022 -0.128341 -0.125828 -0.122618 -0.118646 -0.113839 -0.108121 -0.101409 -0.0936163 -0.0846478 -0.0744034 -0.0627746 -0.0496474 -0.0348975 -0.0183954 -6.74431e-010 -0.15036 -0.150605 -0.150359 -0.14957 -0.148177 -0.146122 -0.143335 -0.139747 -0.13528 -0.129851 -0.123374 -0.115754 -0.106889 -0.0966735 -0.0849917 -0.0717204 -0.05673 -0.0398798 -0.0210229 -7.32485e-010 -0.167815 -0.168227 -0.168083 -0.167323 -0.165879 -0.163683 -0.160657 -0.156721 -0.151788 -0.145764 -0.138551 -0.130041 -0.120122 -0.108673 -0.0955636 -0.0806573 -0.0638088 -0.0448609 -0.0236502 -8.02486e-010 -0.184805 -0.185431 -0.185434 -0.184747 -0.183295 -0.180998 -0.17777 -0.173522 -0.168155 -0.161565 -0.153642 -0.144265 -0.13331 -0.120641 -0.106117 -0.0895844 -0.0708831 -0.0498406 -0.0262774 -8.68233e-010 -0.201283 -0.202173 -0.202374 -0.201809 -0.200394 -0.198041 -0.194653 -0.190132 -0.184366 -0.177243 -0.168637 -0.158418 -0.146448 -0.132577 -0.11665 -0.0985005 -0.0779526 -0.0548188 -0.0289043 -8.83799e-010 -0.217203 -0.218414 -0.218866 -0.218475 -0.217147 -0.214786 -0.211284 -0.206531 -0.200407 -0.192784 -0.183527 -0.172493 -0.15953 -0.144476 -0.127161 -0.107404 -0.0850166 -0.0597953 -0.0315311 -8.61958e-010 -0.232522 -0.234111 -0.234872 -0.234711 -0.233525 -0.231207 -0.227641 -0.222702 -0.216261 -0.208177 -0.198303 -0.186484 -0.172553 -0.156335 -0.137648 -0.116295 -0.0920748 -0.06477 -0.0341575 -8.82687e-010 -0.247198 -0.249226 -0.250357 -0.250486 -0.249501 -0.247282 -0.243702 -0.238627 -0.231914 -0.223411 -0.212957 -0.200383 -0.185511 -0.168151 -0.148108 -0.125172 -0.0991266 -0.0697427 -0.0367837 -9.17496e-010 -0.261188 -0.263722 -0.265288 -0.26577 -0.265045 -0.262984 -0.259447 -0.254289 -0.247352 -0.238473 -0.227477 -0.214183 -0.198398 -0.179921 -0.15854 -0.134033 -0.106172 -0.0747132 -0.0394097 -7.64739e-010 -0.274455 -0.277563 -0.27963 -0.280531 -0.280132 -0.278291 -0.274856 -0.269669 -0.26256 -0.253352 -0.241857 -0.227879 -0.211212 -0.19164 -0.168941 -0.142878 -0.113209 -0.0796815 -0.0420353 -3.57956e-010 -0.286962 -0.290713 -0.293352 -0.294742 -0.294735 -0.29318 -0.289909 -0.284752 -0.277525 -0.268036 -0.256086 -0.241462 -0.223946 -0.203307 -0.17931 -0.151705 -0.120239 -0.0846473 -0.0446606 5.55884e-011 -0.298675 -0.303141 -0.306423 -0.308373 -0.30883 -0.307627 -0.304586 -0.29952 -0.292232 -0.282515 -0.270156 -0.254927 -0.236595 -0.214918 -0.189644 -0.160513 -0.12726 -0.0896106 -0.0472855 1.35676e-009 -0.30956 -0.314816 -0.318816 -0.321399 -0.322391 -0.321612 -0.318868 -0.313957 -0.306667 -0.296778 -0.284058 -0.268266 -0.249156 -0.226469 -0.199942 -0.169302 -0.134273 -0.0945711 -0.0499101 7.78557e-009 </DataArray> 
</PointData> 
<Points> 
<DataArray type="Float32" NumberOfComponents="3"> 
-1 0 0 -0.947368 0 0 -0.894737 0 0 -0.842105 0 0 -0.789474 0 0 -0.736842 0 0 -0.684211 0 0 -0.631579 0 0 -0.578947 0 0 -0.526316 0 0 -0.473684 0 0 -0.421053 0 0 -0.368421 0 0 -0.315789 0 0 -0.263158 0 0 -0.210526 0 0 -0.157895 0 0 -0.105263 0 0 -0.0526316 0 0 0 0 0 -1 0.0526316 0 -0.947368 0.0526316 0 -0.894737 0.0526316 0 -0.842105 0.0526316 0 -0.789474 0.0526316 0 -0.736842 0.0526316 0 -0.684211 0.0526316 0 -0.631579 0.0526316 0 -0.578947 0.0526316 0 -0.526316 0.0526316 0 -0.473684 0.0526316 0 -0.421053 0.0526316 0 -0.368421 0.0526316 0 -0.315789 0.0526316 0 -0.263158 0.0526316 0 -0.210526 0.0526316 0 -0.157895 0.0526316 0 -0.105263 0.0526316 0 -0.0526316 0.0526316 0 0 0.0526316 0 -1 0.105263 0 -0.947368 0.105263 0 -0.894737 0.105263 0 -0.842105 0.105263 0 -0.789474 0.105263 0 -0.736842 0.105263 0 -0.684211 0.105263 0 -0.631579 0.105263 0 -0.578947 0.105263 0 -0.526316 0.105263 0 -0.473684 0.105263 0 -0.421053 0.105263 0 -0.368421 0.105263 0 -0.315789 0.105263 0 -0.263158 0.105263 0 -0.210526 0.105263 0 -0.157895 0.105263 0 -0.105263 0.105263 0 -0.0526316 0.105263 0 0 0.105263 0 -1 0.157895 0 -0.947368 0.157895 0 -0.894737 0.157895 0 -0.842105 0.157895 0 -0.789474 0.157895 0 -0.736842 0.157895 0 -0.684211 0.157895 0 -0.631579 0.157895 0 -0.578947 0.157895 0 -0.526316 0.157895 0 -0.473684 0.157895 0 -0.421053 0.157895 0 -0.368421 0.157895 0 -0.315789 0.157895 0 -0.263158 0.157895 0 -0.210526 0.157895 0 -0.157895 0.157895 0 -0.105263 0.157895 0 -0.0526316 0.157895 0 0 0.157895 0 -1 0.210526 0 -0.947368 0.210526 0 -0.894737 0.210526 0 -0.842105 0.210526 0 -0.789474 0.210526 0 -0.736842 0.210526 0 -0.684211 0.210526 0 -0.631579 0.210526 0 -0.578947 0.210526 0 -0.526316 0.210526 0 -0.473684 0.210526 0 -0.421053 0.210526 0 -0.368421 0.210526 0 -0.315789 0.210526 0 -0.263158 0.210526 0 -0.210526 0.210526 0 -0.157895 0.210526 0 -0.105263 0.210526 0 -0.0526316 0.210526 0 0 0.210526 0 -1 0.263158 0 -0.947368 0.263158 0 -0.894737 0.263158 0 -0.842105 0.263158 0 -0.789474 0.263158 0 -0.736842 0.263158 0 -0.684211 0.263158 0 -0.631579 0.263158 0 -0.578947 0.263158 0 -0.526316 0.263158 0 -0.473684 0.263158 0 -0.421053 0.263158 0 -0.368421 0.263158 0 -0.315789 0.263158 0 -0.263158 0.263158 0 -0.210526 0.263158 0 -0.157895 0.263158 0 -0.105263 0.263158 0 -0.0526316 0.263158 0 0 0.263158 0 -1 0.315789 0 -0.947368 0.315789 0 -0.894737 0.315789 0 -0.842105 0.315789 0 -0.789474 0.315789 0 -0.736842 0.315789 0 -0.684211 0.315789 0 -0.631579 0.315789 0 -0.578947 0.315789 0 -0.526316 0.315789 0 -0.473684 0.315789 0 -0.421053 0.315789 0 -0.368421 0.315789 0 -0.315789 0.315789 0 -0.263158 0.315789 0 -0.210526 0.315789 0 -0.157895 0.315789 0 -0.105263 0.315789 0 -0.0526316 0.315789 0 0 0.315789 0 -1 0.368421 0 -0.947368 0.368421 0 -0.894737 0.368421 0 -0.842105 0.368421 0 -0.789474 0.368421 0 -0.736842 0.368421 0 -0.684211 0.368421 0 -0.631579 0.368421 0 -0.578947 0.368421 0 -0.526316 0.368421 0 -0.473684 0.368421 0 -0.421053 0.368421 0 -0.368421 0.368421 0 -0.315789 0.368421 0 -0.263158 0.368421 0 -0.210526 0.368421 0 -0.157895 0.368421 0 -0.105263 0.368421 0 -0.0526316 0.368421 0 0 0.368421 0 -1 0.421053 0 -0.947368 0.421053 0 -0.894737 0.421053 0 -0.842105 0.421053 0 -0.789474 0.421053 0 -0.736842 0.421053 0 -0.684211 0.421053 0 -0.631579 0.421053 0 -0.578947 0.421053 0 -0.526316 0.421053 0 -0.473684 0.421053 0 -0.421053 0.421053 0 -0.368421 0.421053 0 -0.315789 0.421053 0 -0.263158 0.421053 0 -0.210526 0.421053 0 -0.157895 0.421053 0 -0.105263 0.421053 0 -0.0526316 0.421053 0 0 0.421053 0 -1 0.473684 0 -0.947368 0.473684 0 -0.894737 0.473684 0 -0.842105 0.473684 0 -0.789474 0.473684 0 -0.736842 0.473684 0 -0.684211 0.473684 0 -0.631579 0.473684 0 -0.578947 0.473684 0 -0.526316 0.473684 0 -0.473684 0.473684 0 -0.421053 0.473684 0 -0.368421 0.473684 0 -0.315789 0.473684 0 -0.263158 0.473684 0 -0.210526 0.473684 0 -0.157895 0.473684 0 -0.105263 0.473684 0 -0.0526316 0.473684 0 0 0.473684 0 -1 0.526316 0 -0.947368 0.526316 0 -0.894737 0.526316 0 -0.842105 0.526316 0 -0.789474 0.526316 0 -0.736842 0.526316 0 -0.684211 0.526316 0 -0.631579 0.526316 0 -0.578947 0.526316 0 -0.526316 0.526316 0 -0.473684 0.526316 0 -0.421053 0.526316 0 -0.368421 0.526316 0 -0.315789 0.526316 0 -0.263158 0.526316 0 -0.210526 0.526316 0 -0.157895 0.526316 0 -0.105263 0.526316 0 -0.0526316 0.526316 0 0 0.526316 0 -1 0.578947 0 -0.947368 0.578947 0 -0.894737 0.578947 0 -0.842105 0.578947 0 -0.789474 0.578947 0 -0.736842 0.578947 0 -0.684211 0.578947 0 -0.631579 0.578947 0 -0.578947 0.578947 0 -0.526316 0.578947 0 -0.473684 0.578947 0 -0.421053 0.578947 0 -0.368421 0.578947 0 -0.315789 0.578947 0 -0.263158 0.578947 0 -0.210526 0.578947 0 -0.157895 0.578947 0 -0.105263 0.578947 0 -0.0526316 0.578947 0 0 0.578947 0 -1 0.631579 0 -0.947368 0.631579 0 -0.894737 0.631579 0 -0.842105 0.631579 0 -0.789474 0.631579 0 -0.736842 0.631579 0 -0.684211 0.631579 0 -0.631579 0.631579 0 -0.578947 0.631579 0 -0.526316 0.631579 0 -0.473684 0.631579 0 -0.421053 0.631579 0 -0.368421 0.631579 0 -0.315789 0.631579 0 -0.263158 0.631579 0 -0.210526 0.631579 0 -0.157895 0.631579 0 -0.105263 0.631579 0 -0.0526316 0.631579 0 0 0.631579 0 -1 0.684211 0 -0.947368 0.684211 0 -0.894737 0.684211 0 -0.842105 0.684211 0 -0.789474 0.684211 0 -0.736842 0.684211 0 -0.684211 0.684211 0 -0.631579 0.684211 0 -0.578947 0.684211 0 -0.526316 0.684211 0 -0.473684 0.684211 0 -0.421053 0.684211 0 -0.368421 0.684211 0 -0.315789 0.684211 0 -0.263158 0.684211 0 -0.210526 0.684211 0 -0.157895 0.684211 0 -0.105263 0.684211 0 -0.0526316 0.684211 0 0 0.684211 0 -1 0.736842 0 -0.947368 0.736842 0 -0.894737 0.736842 0 -0.842105 0.736842 0 -0.789474 0.736842 0 -0.736842 0.736842 0 -0.684211 0.736842 0 -0.631579 0.736842 0 -0.578947 0.736842 0 -0.526316 0.736842 0 -0.473684 0.736842 0 -0.421053 0.736842 0 -0.368421 0.736842 0 -0.315789 0.736842 0 -0.263158 0.736842 0 -0.210526 0.736842 0 -0.157895 0.736842 0 -0.105263 0.736842 0 -0.0526316 0.736842 0 0 0.736842 0 -1 0.789474 0 -0.947368 0.789474 0 -0.894737 0.789474 0 -0.842105 0.789474 0 -0.789474 0.789474 0 -0.736842 0.789474 0 -0.684211 0.789474 0 -0.631579 0.789474 0 -0.578947 0.789474 0 -0.526316 0.789474 0 -0.473684 0.789474 0 -0.421053 0.789474 0 -0.368421 0.789474 0 -0.315789 0.789474 0 -0.263158 0.789474 0 -0.210526 0.789474 0 -0.157895 0.789474 0 -0.105263 0.789474 0 -0.0526316 0.789474 0 0 0.789474 0 -1 0.842105 0 -0.947368 0.842105 0 -0.894737 0.842105 0 -0.842105 0.842105 0 -0.789474 0.842105 0 -0.736842 0.842105 0 -0.684211 0.842105 0 -0.631579 0.842105 0 -0.578947 0.842105 0 -0.526316 0.842105 0 -0.473684 0.842105 0 -0.421053 0.842105 0 -0.368421 0.842105 0 -0.315789 0.842105 0 -0.263158 0.842105 0 -0.210526 0.842105 0 -0.157895 0.842105 0 -0.105263 0.842105 0 -0.0526316 0.842105 0 0 0.842105 0 -1 0.894737 0 -0.947368 0.894737 0 -0.894737 0.894737 0 -0.842105 0.894737 0 -0.789474 0.894737 0 -0.736842 0.894737 0 -0.684211 0.894737 0 -0.631579 0.894737 0 -0.578947 0.894737 0 -0.526316 0.894737 0 -0.473684 0.894737 0 -0.421053 0.894737 0 -0.368421 0.894737 0 -0.315789 0.894737 0 -0.263158 0.894737 0 -0.210526 0.894737 0 -0.157895 0.894737 0 -0.105263 0.894737 0 -0.0526316 0.894737 0 0 0.894737 0 -1 0.947368 0 -0.947368 0.947368 0 -0.894737 0.947368 0 -0.842105 0.947368 0 -0.789474 0.947368 0 -0.736842 0.947368 0 -0.684211 0.947368 0 -0.631579 0.947368 0 -0.578947 0.947368 0 -0.526316 0.947368 0 -0.473684 0.947368 0 -0.421053 0.947368 0 -0.368421 0.947368 0 -0.315789 0.947368 0 -0.263158 0.947368 0 -0.210526 0.947368 0 -0.157895 0.947368 0 -0.105263 0.947368 0 -0.0526316 0.947368 0 0 0.947368 0 -1 1 0 -0.947368 1 0 -0.894737 1 0 -0.842105 1 0 -0.789474 1 0 -0.736842 1 0 -0.684211 1 0 -0.631579 1 0 -0.578947 1 0 -0.526316 1 0 -0.473684 1 0 -0.421053 1 0 -0.368421 1 0 -0.315789 1 0 -0.263158 1 0 -0.210526 1 0 -0.157895 1 0 -0.105263 1 0 -0.0526316 1 0 0 1 0 
</DataArray>
</Points> 
</Piece> 
</StructuredGrid> 
</VTKFile> 
