<?xml version="1.0"?> 
<VTKFile type="StructuredGrid" version="0.1"> 
<StructuredGrid WholeExtent="0 79 0 79 0 0"> 
<Piece Extent="0 79 0 79 0 0"> 
<PointData Scalars="gradient">
<DataArray type="Float32" Name="gradient" format="ascii" NumberOfComponents="1"> 
0.0096 0.0096 0.0096 0.0096 0.0096 0.0096 0.0096 0.0096 0.0096 0.0096 0.0096 0.0096 0.0096 0.0096 0.0096 0.0096 0.0096 0.0096 0.0096 0.0096 0.0096 0.0096 0.0096 0.0096 0.0096 0.0096 0.0096 0.0096 0.0096 0.0096 0.0096 0.0096 0.0096 0.0096 0.0096 0.0096 0.0096 0.0096 0.0096 0.0096 0.0096 0.0096 0.0096 0.0096 0.0096 0.0096 0.0096 0.0096 0.0096 0.0096 0.0096 0.0096 0.0096 0.0096 0.0096 0.0096 0.0096 0.0096 0.0096 0.0096 0.0096 0.0096 0.0096 0.0096 0.0096 0.0096 0.0096 0.0096 0.0096 0.0096 0.0096 0.0096 0.0096 0.0096 0.0096 0.0096 0.0096 0.0096 0.0096 0.0096 0.00959985 0.00957986 0.00956316 0.00954977 0.00953962 0.00953137 0.00952447 0.0095189 0.00951458 0.00951087 0.00950765 0.00950492 0.00950262 0.00950055 0.0094987 0.00949707 0.00949562 0.00949429 0.00949308 0.00949199 0.009491 0.00949009 0.00948927 0.00948852 0.00948783 0.0094872 0.00948663 0.00948612 0.00948565 0.00948522 0.00948484 0.0094845 0.00948419 0.00948392 0.00948368 0.00948348 0.0094833 0.00948315 0.00948302 0.00948293 0.00948285 0.0094828 0.00948277 0.00948276 0.00948277 0.0094828 0.00948285 0.00948291 0.009483 0.00948309 0.00948321 0.00948334 0.00948348 0.00948364 0.00948381 0.00948399 0.00948419 0.0094844 0.00948462 0.00948485 0.0094851 0.00948535 0.00948562 0.00948589 0.00948618 0.00948647 0.00948678 0.00948709 0.00948742 0.00948775 0.00948809 0.00948844 0.0094888 0.00948917 0.00948954 0.00948992 0.00949031 0.00949071 0.00949112 0.00949153 0.00959922 0.00957572 0.00955351 0.00953257 0.00951294 0.00949517 0.00947949 0.0094659 0.00945431 0.00944411 0.00943519 0.00942754 0.00942102 0.00941518 0.00941001 0.00940551 0.00940154 0.00939793 0.00939469 0.00939181 0.00938919 0.0093868 0.00938462 0.00938267 0.00938087 0.00937923 0.00937774 0.00937639 0.00937516 0.00937403 0.00937302 0.00937211 0.00937128 0.00937053 0.00936987 0.00936929 0.00936877 0.00936831 0.00936793 0.0093676 0.00936732 0.0093671 0.00936694 0.00936681 0.00936674 0.00936671 0.00936672 0.00936677 0.00936686 0.00936698 0.00936715 0.00936734 0.00936757 0.00936783 0.00936812 0.00936844 0.00936879 0.00936917 0.00936957 0.00937 0.00937045 0.00937093 0.00937143 0.00937195 0.0093725 0.00937307 0.00937366 0.00937427 0.0093749 0.00937554 0.00937621 0.0093769 0.00937761 0.00937833 0.00937907 0.00937983 0.00938061 0.0093814 0.00938221 0.00938304 0.0095978 0.00957066 0.00954461 0.00951967 0.00949582 0.00947329 0.00945213 0.00943237 0.00941402 0.00939725 0.00938208 0.00936852 0.00935645 0.00934554 0.00933577 0.00932714 0.00931946 0.00931249 0.00930623 0.00930067 0.00929564 0.00929106 0.00928691 0.00928318 0.00927978 0.00927666 0.00927383 0.00927127 0.00926892 0.00926678 0.00926484 0.00926309 0.00926149 0.00926004 0.00925875 0.00925759 0.00925655 0.00925562 0.00925481 0.00925411 0.00925349 0.00925298 0.00925255 0.00925221 0.00925194 0.00925175 0.00925163 0.00925158 0.0092516 0.00925168 0.00925182 0.00925201 0.00925227 0.00925257 0.00925293 0.00925333 0.00925378 0.00925428 0.00925483 0.00925541 0.00925604 0.00925671 0.00925741 0.00925815 0.00925894 0.00925975 0.0092606 0.00926149 0.00926241 0.00926336 0.00926434 0.00926535 0.00926639 0.00926746 0.00926857 0.0092697 0.00927085 0.00927204 0.00927325 0.00927449 0.00959537 0.00956506 0.00953577 0.00950749 0.00948022 0.00945405 0.00942899 0.00940506 0.00938228 0.00936084 0.00934078 0.00932209 0.00930478 0.00928882 0.00927422 0.00926098 0.00924895 0.00923794 0.00922796 0.009219 0.00921084 0.00920338 0.00919663 0.00919055 0.00918499 0.00917989 0.00917527 0.00917108 0.00916724 0.00916373 0.00916055 0.00915766 0.00915502 0.00915262 0.00915046 0.00914851 0.00914674 0.00914516 0.00914376 0.00914252 0.00914142 0.00914047 0.00913966 0.00913897 0.0091384 0.00913795 0.00913761 0.00913737 0.00913722 0.00913718 0.00913722 0.00913735 0.00913755 0.00913785 0.00913821 0.00913865 0.00913915 0.00913973 0.00914037 0.00914107 0.00914184 0.00914266 0.00914354 0.00914447 0.00914546 0.0091465 0.00914759 0.00914873 0.00914992 0.00915115 0.00915243 0.00915376 0.00915513 0.00915654 0.00915799 0.00915949 0.00916102 0.0091626 0.00916421 0.00916586 0.00959171 0.00955861 0.00952641 0.00949511 0.00946472 0.00943533 0.00940702 0.00937977 0.00935359 0.00932856 0.00930469 0.00928197 0.00926045 0.00924024 0.00922134 0.00920377 0.00918746 0.00917235 0.00915846 0.00914576 0.00913409 0.00912335 0.00911354 0.00910465 0.00909647 0.00908896 0.00908213 0.00907593 0.00907021 0.00906498 0.00906023 0.00905591 0.00905195 0.00904833 0.00904507 0.00904211 0.00903941 0.00903698 0.00903481 0.00903287 0.00903113 0.0090296 0.00902827 0.00902712 0.00902613 0.0090253 0.00902464 0.00902411 0.00902372 0.00902346 0.00902334 0.00902332 0.00902342 0.00902363 0.00902395 0.00902436 0.00902488 0.00902548 0.00902618 0.00902696 0.00902782 0.00902876 0.00902978 0.00903088 0.00903205 0.00903329 0.00903459 0.00903597 0.00903741 0.00903891 0.00904047 0.0090421 0.00904378 0.00904552 0.00904732 0.00904917 0.00905108 0.00905305 0.00905506 0.00905713 0.00958665 0.00955088 0.00951599 0.00948197 0.00944882 0.00941661 0.00938536 0.00935509 0.0093258 0.0092976 0.0092705 0.00924451 0.00921965 0.00919597 0.00917348 0.00915217 0.00913208 0.00911322 0.00909561 0.00907923 0.00906399 0.00904985 0.0090368 0.00902482 0.00901373 0.00900351 0.00899415 0.0089856 0.00897771 0.00897045 0.00896384 0.00895781 0.00895225 0.00894717 0.00894257 0.00893838 0.00893455 0.00893108 0.00892796 0.00892515 0.00892261 0.00892036 0.00891838 0.00891663 0.0089151 0.0089138 0.00891271 0.0089118 0.00891107 0.00891052 0.00891014 0.00890991 0.00890984 0.00890991 0.00891012 0.00891046 0.00891092 0.00891151 0.00891222 0.00891303 0.00891396 0.00891499 0.00891612 0.00891735 0.00891867 0.00892008 0.00892158 0.00892317 0.00892485 0.0089266 0.00892843 0.00893035 0.00893233 0.0089344 0.00893653 0.00893874 0.00894102 0.00894336 0.00894578 0.00894826 0.00957999 0.00954166 0.00950419 0.00946758 0.00943182 0.00939697 0.00936306 0.00933008 0.00929804 0.00926703 0.00923704 0.00920809 0.0091802 0.00915345 0.00912783 0.00910335 0.00908003 0.0090579 0.00903697 0.00901723 0.00899866 0.00898126 0.00896501 0.00894992 0.00893586 0.0089228 0.00891074 0.00889963 0.00888934 0.00887984 0.00887113 0.00886315 0.00885578 0.00884902 0.00884287 0.00883724 0.00883208 0.00882739 0.00882316 0.00881931 0.00881583 0.00881271 0.00880995 0.00880747 0.00880529 0.0088034 0.00880178 0.00880039 0.00879924 0.00879832 0.00879761 0.0087971 0.00879678 0.00879665 0.00879669 0.00879689 0.00879726 0.00879779 0.00879846 0.00879927 0.00880022 0.00880131 0.00880251 0.00880384 0.00880529 0.00880686 0.00880853 0.00881031 0.0088122 0.00881419 0.00881628 0.00881847 0.00882075 0.00882313 0.00882559 0.00882815 0.00883079 0.00883352 0.00883633 0.00883923 0.00957157 0.00953077 0.00949082 0.00945171 0.00941346 0.0093761 0.00933966 0.00930413 0.00926953 0.00923591 0.00920329 0.00917167 0.00914106 0.00911154 0.00908311 0.00905577 0.00902954 0.00900448 0.00898057 0.00895783 0.00893626 0.00891586 0.00889663 0.00887857 0.00886161 0.00884574 0.00883097 0.00881725 0.00880446 0.0087926 0.00878166 0.00877157 0.00876222 0.00875361 0.00874574 0.00873851 0.00873185 0.00872578 0.00872028 0.00871525 0.00871068 0.00870657 0.00870289 0.00869958 0.00869663 0.00869405 0.0086918 0.00868984 0.00868817 0.0086868 0.00868569 0.00868482 0.00868419 0.0086838 0.00868362 0.00868364 0.00868386 0.00868428 0.00868487 0.00868564 0.00868658 0.00868768 0.00868893 0.00869034 0.00869189 0.00869358 0.00869541 0.00869736 0.00869945 0.00870166 0.00870399 0.00870644 0.00870901 0.00871169 0.00871448 0.00871738 0.00872038 0.00872349 0.0087267 0.00873002 0.00956124 0.00951802 0.00947565 0.00943413 0.00939347 0.0093537 0.00931484 0.00927689 0.00923985 0.00920379 0.0091687 0.00913458 0.00910147 0.0090694 0.00903839 0.00900843 0.00897957 0.00895183 0.00892522 0.00889975 0.00887543 0.00885228 0.00883029 0.00880947 0.0087898 0.00877125 0.00875385 0.00873756 0.00872229 0.00870804 0.00869482 0.00868254 0.00867112 0.00866056 0.00865085 0.00864189 0.00863362 0.00862604 0.00861914 0.00861281 0.00860703 0.0086018 0.0085971 0.00859285 0.00858903 0.00858566 0.00858269 0.00858007 0.00857781 0.00857591 0.00857432 0.00857303 0.00857203 0.00857131 0.00857085 0.00857064 0.00857067 0.00857093 0.00857141 0.00857209 0.00857299 0.00857408 0.00857535 0.00857679 0.00857842 0.00858022 0.00858218 0.00858429 0.00858656 0.00858898 0.00859154 0.00859424 0.00859708 0.00860006 0.00860316 0.0086064 0.00860976 0.00861325 0.00861686 0.0086206 0.00954882 0.00950323 0.00945851 0.00941464 0.00937164 0.00932954 0.00928835 0.00924807 0.0092087 0.0091703 0.00913286 0.00909639 0.00906091 0.00902647 0.00899305 0.00896068 0.00892937 0.00889917 0.00887008 0.00884209 0.00881525 0.00878956 0.00876503 0.00874165 0.00871944 0.00869838 0.00867848 0.00865972 0.00864205 0.00862547 0.00860997 0.0085955 0.00858199 0.00856943 0.00855782 0.00854705 0.00853708 0.00852791 0.00851951 0.00851178 0.0085047 0.00849826 0.00849244 0.00848715 0.00848238 0.00847812 0.00847435 0.00847101 0.00846808 0.00846557 0.00846345 0.00846167 0.00846023 0.00845914 0.00845835 0.00845785 0.00845764 0.00845771 0.00845803 0.0084586 0.00845941 0.00846046 0.00846171 0.00846318 0.00846486 0.00846674 0.00846881 0.00847106 0.0084735 0.00847611 0.00847889 0.00848183 0.00848494 0.0084882 0.00849162 0.00849519 0.00849891 0.00850278 0.00850679 0.00851094 0.00953419 0.00948627 0.00943923 0.00939307 0.00934779 0.00930342 0.00925997 0.00921744 0.00917583 0.00913518 0.0090955 0.00905678 0.00901905 0.00898235 0.00894667 0.00891203 0.00887844 0.00884594 0.00881453 0.00878421 0.00875503 0.00872699 0.00870009 0.00867435 0.00864977 0.00862635 0.0086041 0.00858301 0.00856305 0.00854422 0.00852652 0.00850991 0.00849432 0.00847976 0.00846623 0.00845363 0.00844192 0.00843109 0.00842114 0.00841194 0.00840349 0.00839576 0.00838875 0.00838234 0.00837654 0.00837133 0.00836669 0.00836254 0.00835888 0.00835571 0.00835298 0.00835066 0.00834874 0.00834722 0.00834605 0.00834522 0.00834473 0.00834457 0.0083447 0.00834511 0.00834581 0.00834678 0.008348 0.00834947 0.00835118 0.00835312 0.00835528 0.00835765 0.00836024 0.00836303 0.00836601 0.00836919 0.00837256 0.0083761 0.00837983 0.00838373 0.00838781 0.00839205 0.00839646 0.00840104 0.0095172 0.00946698 0.00941766 0.00936925 0.00932174 0.00927515 0.00922949 0.00918477 0.00914099 0.00909817 0.00905633 0.00901546 0.00897558 0.00893673 0.0088989 0.0088621 0.00882635 0.00879168 0.0087581 0.0087256 0.00869423 0.00866399 0.00863489 0.00860693 0.00858014 0.00855452 0.00853007 0.00850679 0.00848466 0.00846369 0.00844388 0.00842519 0.0084076 0.00839108 0.00837565 0.00836123 0.00834777 0.00833527 0.00832372 0.00831303 0.00830315 0.00829409 0.00828583 0.00827825 0.00827136 0.00826515 0.00825957 0.00825456 0.00825012 0.00824623 0.00824285 0.00823993 0.00823748 0.00823548 0.0082339 0.0082327 0.00823189 0.00823145 0.00823136 0.00823159 0.00823215 0.00823302 0.00823417 0.00823561 0.00823733 0.00823932 0.00824155 0.00824403 0.00824676 0.00824972 0.00825289 0.00825629 0.00825991 0.00826373 0.00826776 0.00827199 0.00827642 0.00828104 0.00828585 0.00829085 0.00949769 0.0094452 0.00939364 0.009343 0.0092933 0.00924454 0.00919674 0.00914988 0.00910399 0.00905907 0.00901514 0.00897219 0.00893025 0.00888933 0.00884944 0.00881058 0.00877278 0.00873606 0.00870042 0.00866587 0.00863243 0.00860013 0.00856896 0.00853893 0.00851007 0.00848238 0.00845586 0.00843051 0.00840634 0.00838335 0.00836153 0.00834087 0.00832133 0.00830293 0.00828565 0.00826944 0.00825426 0.0082401 0.00822697 0.00821475 0.00820344 0.00819302 0.00818347 0.00817469 0.00816667 0.00815941 0.00815287 0.00814695 0.00814167 0.00813702 0.00813294 0.00812939 0.00812636 0.00812386 0.00812181 0.00812021 0.00811905 0.00811831 0.00811796 0.00811798 0.00811837 0.00811912 0.00812019 0.00812158 0.00812329 0.0081253 0.0081276 0.00813017 0.00813302 0.00813614 0.0081395 0.00814311 0.00814698 0.00815107 0.0081554 0.00815995 0.00816473 0.00816973 0.00817494 0.00818037 0.00947553 0.00942079 0.009367 0.00931418 0.00926233 0.00921144 0.00916153 0.00911259 0.00906463 0.00901768 0.00897172 0.00892677 0.00888283 0.00883992 0.00879806 0.00875724 0.00871747 0.0086788 0.0086412 0.0086047 0.00856931 0.00853506 0.00850194 0.00846996 0.00843915 0.00840951 0.00838105 0.00835376 0.00832767 0.00830276 0.00827904 0.0082565 0.00823512 0.0082149 0.00819585 0.0081779 0.00816104 0.00814527 0.00813056 0.00811685 0.0081041 0.00809232 0.00808148 0.00807147 0.00806231 0.00805397 0.00804642 0.00803957 0.00803342 0.00802798 0.00802317 0.00801895 0.00801531 0.00801226 0.00800973 0.00800769 0.00800615 0.00800509 0.00800445 0.00800424 0.00800444 0.00800504 0.00800601 0.00800734 0.00800902 0.00801105 0.00801338 0.00801604 0.00801901 0.00802227 0.00802581 0.00802963 0.00803373 0.00803809 0.00804271 0.00804759 0.00805272 0.0080581 0.00806372 0.00806958 0.00945058 0.0093936 0.00933762 0.00928263 0.00922865 0.00917567 0.0091237 0.00907273 0.00902276 0.00897382 0.00892589 0.008879 0.00883313 0.00878831 0.00874455 0.00870184 0.0086602 0.00861966 0.00858021 0.00854185 0.00850461 0.00846851 0.00843355 0.00839973 0.00836708 0.00833561 0.00830531 0.0082762 0.00824829 0.00822158 0.00819607 0.00817175 0.00814862 0.00812667 0.00810592 0.00808631 0.00806783 0.00805048 0.00803424 0.00801906 0.0080049 0.00799176 0.00797963 0.00796841 0.00795808 0.00794866 0.00794009 0.00793228 0.00792525 0.00791899 0.00791342 0.00790851 0.00790425 0.00790063 0.00789758 0.00789508 0.00789314 0.00789172 0.00789079 0.00789031 0.00789031 0.00789075 0.0078916 0.00789284 0.00789449 0.00789651 0.00789888 0.00790161 0.00790468 0.00790808 0.00791179 0.00791582 0.00792015 0.00792478 0.00792969 0.00793489 0.00794037 0.00794613 0.00795215 0.00795844 0.0094227 0.00936349 0.00930533 0.0092482 0.00919212 0.00913708 0.00908308 0.00903012 0.00897819 0.00892732 0.00887749 0.0088287 0.00878097 0.00873431 0.00868872 0.0086442 0.00860077 0.00855844 0.00851721 0.00847709 0.00843809 0.00840024 0.00836354 0.00832798 0.00829359 0.00826039 0.00822837 0.00819754 0.00816792 0.0081395 0.0081123 0.0080863 0.00806151 0.00803793 0.00801556 0.00799436 0.00797433 0.00795546 0.00793775 0.00792114 0.0079056 0.00789114 0.00787774 0.00786531 0.00785384 0.00784333 0.00783373 0.00782497 0.00781704 0.00780995 0.00780361 0.00779799 0.00779308 0.00778887 0.00778529 0.00778232 0.00777995 0.00777817 0.00777691 0.00777617 0.00777594 0.0077762 0.00777691 0.00777806 0.00777966 0.00778167 0.00778407 0.00778685 0.00779002 0.00779355 0.00779743 0.00780165 0.00780622 0.00781111 0.00781631 0.00782183 0.00782766 0.0078338 0.00784023 0.00784696 0.00939175 0.00933031 0.00926997 0.00921073 0.00915258 0.00909551 0.00903952 0.0089846 0.00893076 0.008878 0.00882631 0.0087757 0.00872618 0.00867774 0.00863039 0.00858413 0.00853898 0.00849494 0.00845201 0.00841021 0.00836955 0.00833004 0.00829168 0.00825447 0.00821845 0.00818361 0.00814997 0.00811752 0.00808629 0.00805627 0.00802747 0.00799989 0.00797354 0.00794841 0.0079245 0.0079018 0.00788029 0.00785998 0.00784085 0.00782286 0.00780599 0.00779025 0.00777561 0.00776199 0.00774939 0.00773781 0.0077272 0.00771748 0.00770866 0.00770073 0.00769362 0.00768729 0.00768172 0.00767691 0.00767279 0.00766933 0.00766652 0.00766436 0.00766277 0.00766174 0.00766128 0.00766136 0.00766192 0.00766297 0.0076645 0.00766649 0.0076689 0.00767174 0.00767501 0.00767867 0.0076827 0.00768712 0.00769191 0.00769706 0.00770255 0.00770839 0.00771458 0.00772109 0.00772793 0.0077351 0.00935757 0.00929391 0.00923139 0.00917004 0.00910984 0.00905077 0.00899282 0.00893599 0.00888028 0.00882569 0.0087722 0.00871982 0.00866855 0.0086184 0.00856936 0.00852144 0.00847464 0.00842897 0.00838443 0.00834103 0.00829878 0.00825769 0.00821777 0.00817901 0.00814144 0.00810507 0.00806989 0.00803592 0.00800317 0.00797165 0.00794135 0.00791229 0.00788446 0.00785787 0.00783252 0.00780839 0.00778548 0.00776379 0.00774332 0.00772401 0.00770587 0.00768889 0.00767306 0.00765829 0.0076446 0.00763196 0.00762036 0.0076097 0.0076 0.00759124 0.00758336 0.0075763 0.00757008 0.00756467 0.00756 0.00755604 0.0075528 0.00755025 0.00754832 0.007547 0.00754629 0.00754617 0.00754658 0.00754752 0.00754898 0.00755094 0.00755337 0.00755626 0.00755961 0.00756339 0.00756758 0.00757219 0.00757721 0.00758262 0.0075884 0.00759456 0.0076011 0.00760799 0.00761525 0.00762286 0.00932 0.0092541 0.00918942 0.00912596 0.00906373 0.00900268 0.00894281 0.0088841 0.00882657 0.00877019 0.00871496 0.00866087 0.00860793 0.00855612 0.00850546 0.00845594 0.00840757 0.00836035 0.00831428 0.00826936 0.00822561 0.00818303 0.00814163 0.00810141 0.00806238 0.00802456 0.00798795 0.00795255 0.00791838 0.00788544 0.00785374 0.00782328 0.00779407 0.00776611 0.00773939 0.00771393 0.0076897 0.00766671 0.00764496 0.00762441 0.00760506 0.00758689 0.00756991 0.00755404 0.00753929 0.00752564 0.00751307 0.0075015 0.00749092 0.00748135 0.00747271 0.00746495 0.00745807 0.00745207 0.00744685 0.0074424 0.00743871 0.00743577 0.00743349 0.00743188 0.00743093 0.0074306 0.00743085 0.00743168 0.00743307 0.007435 0.00743743 0.00744037 0.00744381 0.00744771 0.00745206 0.00745685 0.0074621 0.00746776 0.00747383 0.00748032 0.00748721 0.00749449 0.00750216 0.00751022 0.00927889 0.00921073 0.00914387 0.00907831 0.00901406 0.00895106 0.0088893 0.00882876 0.00876945 0.00871133 0.00865441 0.00859867 0.00854412 0.00849073 0.00843852 0.00838748 0.00833761 0.00828892 0.00824139 0.00819504 0.00814987 0.00810589 0.0080631 0.0080215 0.00798111 0.00794194 0.00790397 0.00786724 0.00783174 0.00779748 0.00776446 0.0077327 0.00770219 0.00767295 0.00764497 0.00761824 0.00759278 0.00756857 0.00754561 0.00752389 0.00750338 0.0074841 0.00746603 0.00744911 0.00743334 0.00741872 0.00740521 0.00739275 0.00738134 0.00737098 0.0073616 0.00735315 0.00734563 0.00733903 0.00733327 0.00732833 0.0073242 0.00732087 0.00731826 0.00731635 0.00731514 0.00731462 0.00731471 0.00731542 0.00731674 0.00731864 0.00732108 0.00732406 0.00732758 0.00733159 0.0073361 0.00734109 0.00734656 0.00735248 0.00735884 0.00736565 0.0073729 0.00738057 0.00738866 0.00739717 0.00923406 0.0091636 0.00909455 0.0090269 0.00896065 0.00889572 0.00883209 0.00876975 0.00870871 0.00864891 0.00859035 0.00853303 0.00847693 0.00842204 0.00836835 0.00831587 0.00826458 0.00821449 0.0081656 0.0081179 0.0080714 0.0080261 0.00798201 0.00793912 0.00789746 0.00785702 0.0078178 0.00777982 0.00774308 0.00770759 0.00767336 0.00764038 0.00760867 0.00757824 0.00754907 0.00752117 0.00749455 0.0074692 0.00744512 0.00742229 0.00740071 0.00738037 0.00736127 0.00734335 0.00732662 0.00731107 0.00729667 0.00728337 0.00727115 0.00726002 0.00724992 0.0072408 0.00723266 0.00722549 0.0072192 0.00721378 0.00720922 0.00720551 0.00720255 0.00720035 0.00719891 0.00719818 0.00719812 0.00719871 0.00719996 0.00720182 0.00720427 0.00720729 0.0072109 0.00721504 0.0072197 0.00722488 0.00723057 0.00723675 0.00724341 0.00725055 0.00725815 0.00726621 0.00727472 0.00728369 0.00918529 0.00911252 0.00904125 0.0089715 0.00890325 0.00883641 0.00877095 0.00870686 0.00864413 0.00858271 0.00852258 0.00846373 0.00840616 0.00834984 0.00829475 0.0082409 0.00818828 0.00813689 0.00808671 0.00803775 0.00799001 0.00794349 0.00789819 0.00785411 0.00781126 0.00776965 0.00772927 0.00769014 0.00765226 0.00761563 0.00758027 0.00754617 0.00751335 0.00748181 0.00745155 0.00742257 0.00739488 0.00736847 0.00734334 0.00731948 0.00729689 0.00727557 0.0072555 0.00723665 0.00721901 0.00720258 0.00718734 0.00717323 0.00716024 0.00714839 0.0071376 0.00712784 0.00711909 0.00711137 0.00710457 0.00709869 0.00709371 0.00708962 0.00708634 0.00708386 0.00708218 0.00708126 0.00708104 0.00708152 0.0070827 0.00708454 0.00708699 0.00709006 0.00709375 0.00709802 0.00710283 0.00710821 0.00711413 0.00712057 0.00712753 0.00713499 0.00714296 0.00715141 0.00716035 0.00716978 0.00913237 0.00905722 0.00898372 0.00891185 0.00884161 0.00877289 0.00870563 0.00863982 0.00857547 0.00851248 0.00845084 0.00839055 0.00833158 0.00827391 0.0082175 0.00816238 0.00810852 0.00805591 0.00800454 0.00795442 0.00790553 0.00785788 0.00781147 0.00776629 0.00772236 0.00767968 0.00763823 0.00759804 0.00755911 0.00752145 0.00748505 0.00744993 0.00741609 0.00738354 0.00735227 0.00732229 0.00729361 0.00726623 0.00724014 0.00721533 0.00719181 0.00716957 0.0071486 0.00712887 0.00711039 0.00709314 0.00707711 0.00706224 0.00704853 0.00703599 0.00702455 0.00701417 0.00700486 0.0069966 0.00698932 0.006983 0.00697762 0.00697317 0.00696958 0.00696683 0.00696491 0.00696381 0.00696344 0.00696382 0.00696494 0.00696675 0.00696922 0.00697234 0.00697612 0.00698051 0.00698549 0.00699106 0.00699722 0.00700393 0.00701118 0.00701898 0.00702731 0.00703616 0.00704553 0.00705542 0.00907505 0.00899746 0.00892167 0.00884767 0.00877545 0.00870487 0.00863584 0.00856837 0.00850245 0.00843796 0.00837489 0.00831323 0.00825296 0.00819402 0.0081364 0.0080801 0.00802509 0.00797136 0.00791891 0.00786772 0.00781779 0.00776912 0.00772169 0.00767552 0.0076306 0.00758694 0.00754454 0.00750339 0.00746352 0.00742491 0.00738758 0.00735152 0.00731676 0.00728329 0.0072511 0.00722022 0.00719064 0.00716237 0.00713539 0.00710972 0.00708534 0.00706226 0.00704046 0.00701994 0.00700067 0.00698266 0.00696589 0.00695031 0.00693593 0.00692274 0.00691069 0.00689974 0.00688989 0.00688114 0.0068734 0.00686665 0.00686089 0.00685611 0.00685222 0.00684921 0.00684708 0.0068458 0.0068453 0.00684559 0.00684665 0.00684844 0.00685093 0.00685412 0.00685799 0.00686251 0.00686766 0.00687343 0.00687983 0.0068868 0.00689436 0.00690249 0.00691119 0.00692045 0.00693025 0.0069406 0.00901304 0.00893294 0.00885482 0.00877866 0.00870447 0.00863204 0.00856129 0.00849221 0.00842478 0.00835887 0.00829445 0.00823151 0.00817003 0.00810993 0.00805119 0.00799382 0.00793778 0.00788304 0.0078296 0.00777746 0.0077266 0.00767701 0.00762868 0.00758163 0.00753584 0.00749131 0.00744804 0.00740605 0.00736533 0.00732588 0.00728771 0.00725083 0.00721523 0.00718094 0.00714794 0.00711624 0.00708585 0.00705678 0.00702901 0.00700254 0.00697739 0.00695354 0.006931 0.00690974 0.00688975 0.00687105 0.0068536 0.00683737 0.00682237 0.00680858 0.00679597 0.00678448 0.00677413 0.00676491 0.00675674 0.0067496 0.00674349 0.00673839 0.00673422 0.00673098 0.00672865 0.00672721 0.00672659 0.00672679 0.00672781 0.0067296 0.00673212 0.00673537 0.00673935 0.00674401 0.00674932 0.0067553 0.00676194 0.00676919 0.00677705 0.00678552 0.0067946 0.00680426 0.0068145 0.00682533 0.00894601 0.0088633 0.00878278 0.00870445 0.00862829 0.00855404 0.0084816 0.00841098 0.00834213 0.00827488 0.0082092 0.00814509 0.00808251 0.00802136 0.00796161 0.00790329 0.00784633 0.00779071 0.00773641 0.00768344 0.00763177 0.00758138 0.00753227 0.00748444 0.00743789 0.00739261 0.0073486 0.00730586 0.0072644 0.00722423 0.00718533 0.00714771 0.0071114 0.00707638 0.00704266 0.00701024 0.00697914 0.00694935 0.00692087 0.00689371 0.00686786 0.00684333 0.00682011 0.00679818 0.00677755 0.00675822 0.00674016 0.00672334 0.00670777 0.00669343 0.0066803 0.00666833 0.00665752 0.00664787 0.00663931 0.00663181 0.00662537 0.00661998 0.00661556 0.0066121 0.00660959 0.00660801 0.00660729 0.00660742 0.0066084 0.0066102 0.00661276 0.00661608 0.00662017 0.00662498 0.00663047 0.00663667 0.00664355 0.00665108 0.00665926 0.00666807 0.00667753 0.0066876 0.00669828 0.00670958 0.00887356 0.00878812 0.00870513 0.00862458 0.00854646 0.00847043 0.00839637 0.00832426 0.00825408 0.00818559 0.00811877 0.00805361 0.00799006 0.00792798 0.00786737 0.00780822 0.00775049 0.00769411 0.00763909 0.00758542 0.00753307 0.00748201 0.00743225 0.00738378 0.00733659 0.00729068 0.00724605 0.00720269 0.00716061 0.00711981 0.00708029 0.00704206 0.00700513 0.00696949 0.00693514 0.00690211 0.00687039 0.00683998 0.00681088 0.00678311 0.00675666 0.00673152 0.00670771 0.0066852 0.00666399 0.00664409 0.00662549 0.00660814 0.00659206 0.00657724 0.00656363 0.00655122 0.00654 0.00652996 0.00652104 0.00651322 0.00650649 0.00650084 0.00649619 0.00649254 0.00648987 0.00648817 0.00648736 0.00648744 0.00648841 0.00649022 0.00649283 0.00649624 0.00650046 0.00650541 0.0065111 0.00651751 0.00652465 0.00653247 0.00654096 0.00655013 0.00655997 0.00657045 0.00658159 0.00659337 0.00879517 0.00870689 0.00862134 0.00853854 0.00845846 0.0083807 0.00830507 0.00823157 0.00816016 0.00809057 0.00802274 0.00795666 0.00789229 0.00782944 0.00776811 0.0077083 0.00764994 0.00759297 0.00753737 0.00748315 0.00743027 0.00737869 0.00732842 0.00727945 0.00723176 0.00718535 0.00714022 0.00709637 0.00705379 0.0070125 0.00697248 0.00693374 0.0068963 0.00686015 0.00682529 0.00679174 0.0067595 0.00672857 0.00669896 0.00667066 0.00664369 0.00661804 0.00659371 0.00657069 0.00654899 0.0065286 0.00650952 0.00649171 0.00647518 0.00645992 0.00644591 0.00643311 0.00642152 0.00641114 0.0064019 0.00639379 0.00638681 0.00638093 0.00637608 0.00637226 0.00636947 0.00636766 0.00636679 0.00636683 0.0063678 0.00636965 0.00637233 0.00637584 0.00638018 0.00638531 0.00639119 0.00639783 0.00640523 0.00641334 0.00642216 0.00643169 0.00644192 0.00645282 0.00646441 0.00647667 0.0087103 0.008619 0.0085308 0.00844571 0.0083637 0.00828426 0.00820714 0.00813237 0.00805987 0.00798931 0.00792062 0.0078538 0.00778878 0.00772534 0.00766347 0.00760317 0.00754437 0.00748697 0.00743098 0.00737638 0.00732313 0.00727119 0.00722056 0.00717125 0.00712321 0.00707645 0.00703097 0.00698676 0.00694382 0.00690215 0.00686176 0.00682264 0.00678481 0.00674826 0.006713 0.00667904 0.00664639 0.00661504 0.006585 0.00655628 0.00652888 0.0065028 0.00647804 0.0064546 0.00643248 0.00641168 0.00639219 0.00637399 0.00635707 0.00634145 0.00632708 0.00631394 0.00630204 0.00629136 0.00628186 0.0062735 0.00626629 0.00626022 0.00625521 0.00625125 0.00624835 0.00624647 0.00624555 0.00624559 0.00624657 0.00624847 0.00625123 0.00625486 0.00625935 0.00626465 0.00627074 0.00627762 0.00628529 0.00629371 0.00630286 0.00631275 0.00632337 0.0063347 0.00634674 0.00635949 0.00861823 0.00852374 0.00843279 0.00834538 0.00826148 0.00818042 0.00810193 0.00802601 0.00795259 0.00788125 0.00781189 0.00774452 0.00767906 0.00761523 0.00755303 0.00749246 0.00743342 0.0073758 0.0073196 0.00726482 0.00721138 0.00715927 0.00710846 0.00705897 0.00701075 0.0069638 0.00691811 0.00687369 0.00683053 0.00678864 0.006748 0.00670863 0.00667053 0.00663371 0.00659817 0.00656391 0.00653095 0.00649929 0.00646893 0.00643988 0.00641215 0.00638574 0.00636064 0.00633686 0.00631441 0.00629327 0.00627344 0.00625491 0.00623769 0.00622175 0.00620709 0.00619368 0.00618151 0.00617059 0.00616086 0.0061523 0.00614491 0.00613868 0.00613354 0.00612948 0.00612651 0.00612458 0.00612364 0.00612368 0.00612471 0.00612667 0.00612953 0.00613329 0.00613794 0.00614343 0.00614974 0.00615688 0.00616482 0.00617355 0.00618304 0.0061933 0.00620432 0.00621608 0.00622859 0.00624183 0.00851803 0.00842018 0.00832637 0.00823662 0.00815088 0.00806833 0.00798861 0.00791172 0.00783759 0.00776567 0.00769588 0.0076282 0.00756254 0.00749858 0.0074363 0.0073757 0.00731666 0.00725905 0.00720288 0.00714813 0.00709473 0.00704264 0.00699185 0.00694238 0.00689416 0.00684719 0.00680147 0.006757 0.00671378 0.0066718 0.00663107 0.00659158 0.00655336 0.00651639 0.00648068 0.00644625 0.0064131 0.00638124 0.00635067 0.0063214 0.00629343 0.00626678 0.00624143 0.00621741 0.00619469 0.0061733 0.00615322 0.00613444 0.00611697 0.0061008 0.0060859 0.00607227 0.0060599 0.00604878 0.00603887 0.00603016 0.00602263 0.00601629 0.00601106 0.00600693 0.00600391 0.00600196 0.00600102 0.0060011 0.00600219 0.00600425 0.00600723 0.00601113 0.00601595 0.00602165 0.00602819 0.00603558 0.00604382 0.00605287 0.00606271 0.00607334 0.00608477 0.00609697 0.00610994 0.00612368 0.00840855 0.00830714 0.00821039 0.00811829 0.00803081 0.00794691 0.00786615 0.00778853 0.00771395 0.00764175 0.0075718 0.00750412 0.00743856 0.00737475 0.00731268 0.00725235 0.00719361 0.0071363 0.00708041 0.00702595 0.00697282 0.00692099 0.00687045 0.0068212 0.00677319 0.0067264 0.00668084 0.0066365 0.00659339 0.00655149 0.00651082 0.00647137 0.00643315 0.00639618 0.00636044 0.00632596 0.00629275 0.0062608 0.00623012 0.00620074 0.00617264 0.00614585 0.00612035 0.00609616 0.00607329 0.00605172 0.00603147 0.00601252 0.00599487 0.00597853 0.00596347 0.00594968 0.00593716 0.00592591 0.00591587 0.00590705 0.00589943 0.00589301 0.00588773 0.00588357 0.00588053 0.0058786 0.0058777 0.00587784 0.00587901 0.00588118 0.00588429 0.00588836 0.00589338 0.00589929 0.00590608 0.00591375 0.00592229 0.00593166 0.00594186 0.00595288 0.00596472 0.00597736 0.00599081 0.00600505 0.00828811 0.00818308 0.00808338 0.00798902 0.00789994 0.0078149 0.00773335 0.0076553 0.00758062 0.00750849 0.00743876 0.00737141 0.00730631 0.00724301 0.00718151 0.0071218 0.00706371 0.00700702 0.00695174 0.00689786 0.00684529 0.00679398 0.00674395 0.00669517 0.00664759 0.00660121 0.00655601 0.006512 0.00646918 0.00642754 0.0063871 0.00634784 0.0063098 0.00627297 0.00623734 0.00620294 0.00616979 0.00613788 0.00610722 0.00607783 0.00604972 0.00602288 0.00599733 0.00597308 0.00595013 0.00592848 0.00590814 0.00588909 0.00587135 0.0058549 0.00583975 0.00582587 0.00581326 0.00580193 0.00579183 0.00578295 0.00577529 0.00576883 0.00576353 0.00575938 0.00575637 0.00575448 0.00575364 0.00575387 0.00575516 0.00575746 0.00576074 0.00576499 0.00577021 0.00577636 0.00578341 0.00579136 0.00580022 0.00580993 0.00582049 0.00583191 0.00584417 0.00585726 0.00587118 0.00588592 0.00815467 0.00804612 0.00794361 0.00784715 0.00775667 0.00767075 0.00758875 0.00751069 0.00743641 0.00736482 0.00729574 0.00722917 0.00716493 0.00710257 0.00704205 0.00698339 0.00692636 0.00687069 0.00681637 0.00676342 0.00671173 0.00666126 0.00661202 0.00656399 0.00651711 0.00647137 0.00642676 0.0063833 0.00634098 0.0062998 0.00625977 0.00622088 0.00618317 0.00614664 0.00611127 0.0060771 0.00604414 0.0060124 0.00598188 0.0