<?xml version="1.0"?> 
<VTKFile type="StructuredGrid" version="0.1"> 
<StructuredGrid WholeExtent="0 79 0 79 0 0"> 
<Piece Extent="0 79 0 79 0 0"> 
<PointData Scalars="gradient">
<DataArray type="Float32" Name="gradient" format="ascii" NumberOfComponents="1"> 
0.0096 0.0096 0.0096 0.0096 0.0096 0.0096 0.0096 0.0096 0.0096 0.0096 0.0096 0.0096 0.0096 0.0096 0.0096 0.0096 0.0096 0.0096 0.0096 0.0096 0.0096 0.0096 0.0096 0.0096 0.0096 0.0096 0.0096 0.0096 0.0096 0.0096 0.0096 0.0096 0.0096 0.0096 0.0096 0.0096 0.0096 0.0096 0.0096 0.0096 0.0096 0.0096 0.0096 0.0096 0.0096 0.0096 0.0096 0.0096 0.0096 0.0096 0.0096 0.0096 0.0096 0.0096 0.0096 0.0096 0.0096 0.0096 0.0096 0.0096 0.0096 0.0096 0.0096 0.0096 0.0096 0.0096 0.0096 0.0096 0.0096 0.0096 0.0096 0.0096 0.0096 0.0096 0.0096 0.0096 0.0096 0.0096 0.0096 0.0096 0.00950171 0.00950196 0.00950223 0.0095025 0.00950279 0.00950309 0.0095034 0.00950372 0.00950405 0.00950439 0.00950474 0.0095051 0.00950547 0.00950586 0.00950625 0.00950665 0.00950707 0.0095075 0.00950793 0.00950838 0.00950884 0.00950931 0.00950979 0.00951028 0.00951079 0.0095113 0.00951183 0.00951237 0.00951292 0.00951349 0.00951406 0.00951465 0.00951526 0.00951587 0.0095165 0.00951714 0.0095178 0.00951847 0.00951916 0.00951986 0.00952058 0.00952131 0.00952206 0.00952283 0.00952362 0.00952443 0.00952525 0.0095261 0.00952696 0.00952785 0.00952876 0.0095297 0.00953066 0.00953165 0.00953267 0.00953372 0.0095348 0.00953591 0.00953706 0.00953826 0.00953949 0.00954077 0.00954211 0.0095435 0.00954495 0.00954648 0.00954807 0.00954975 0.00955151 0.00955342 0.00955552 0.00955779 0.00956025 0.00956297 0.00956594 0.00956917 0.00957319 0.00957923 0.00958735 0.00959755 0.00940337 0.00940388 0.00940441 0.00940497 0.00940554 0.00940614 0.00940676 0.00940741 0.00940807 0.00940876 0.00940946 0.0094102 0.00941095 0.00941172 0.00941252 0.00941334 0.00941418 0.00941504 0.00941592 0.00941683 0.00941776 0.00941871 0.00941969 0.00942069 0.00942171 0.00942276 0.00942383 0.00942493 0.00942605 0.0094272 0.00942837 0.00942957 0.00943079 0.00943205 0.00943333 0.00943464 0.00943598 0.00943735 0.00943875 0.00944019 0.00944166 0.00944316 0.00944469 0.00944627 0.00944788 0.00944953 0.00945122 0.00945296 0.00945474 0.00945656 0.00945844 0.00946037 0.00946235 0.00946439 0.00946649 0.00946866 0.00947089 0.00947319 0.00947559 0.00947807 0.00948064 0.00948331 0.0094861 0.009489 0.00949202 0.00949521 0.00949861 0.00950221 0.00950603 0.00951012 0.00951451 0.00951921 0.00952428 0.00953019 0.009537 0.00954472 0.00955368 0.00956467 0.00957773 0.00959285 0.00930495 0.00930572 0.00930652 0.00930735 0.00930822 0.00930912 0.00931006 0.00931103 0.00931203 0.00931307 0.00931414 0.00931525 0.00931638 0.00931756 0.00931876 0.00932 0.00932128 0.00932259 0.00932393 0.00932531 0.00932672 0.00932817 0.00932965 0.00933117 0.00933273 0.00933432 0.00933596 0.00933762 0.00933933 0.00934108 0.00934287 0.0093447 0.00934657 0.00934849 0.00935044 0.00935245 0.0093545 0.00935659 0.00935874 0.00936093 0.00936318 0.00936548 0.00936784 0.00937025 0.00937273 0.00937526 0.00937786 0.00938053 0.00938327 0.00938608 0.00938897 0.00939194 0.009395 0.00939814 0.00940139 0.00940475 0.00940821 0.00941179 0.0094155 0.00941936 0.00942335 0.0094275 0.00943186 0.00943641 0.00944117 0.00944619 0.00945152 0.00945715 0.0094631 0.00946953 0.00947651 0.00948403 0.00949217 0.00950142 0.00951185 0.00952345 0.00953643 0.00955122 0.00956785 0.00958633 0.0092064 0.00920742 0.00920849 0.00920961 0.00921077 0.00921198 0.00921324 0.00921454 0.00921589 0.00921728 0.00921872 0.00922021 0.00922174 0.00922332 0.00922494 0.00922661 0.00922833 0.0092301 0.00923191 0.00923377 0.00923567 0.00923763 0.00923964 0.00924169 0.0092438 0.00924595 0.00924816 0.00925042 0.00925273 0.0092551 0.00925752 0.00926 0.00926254 0.00926514 0.00926779 0.00927051 0.0092733 0.00927614 0.00927906 0.00928204 0.0092851 0.00928823 0.00929144 0.00929473 0.0092981 0.00930156 0.0093051 0.00930875 0.00931249 0.00931633 0.00932028 0.00932435 0.00932854 0.00933285 0.00933731 0.00934191 0.00934667 0.00935158 0.00935669 0.009362 0.00936751 0.00937324 0.00937926 0.00938556 0.00939214 0.00939909 0.00940646 0.00941426 0.0094225 0.00943139 0.00944102 0.00945139 0.00946257 0.00947494 0.00948859 0.00950349 0.00951976 0.00953764 0.00955713 0.00957823 0.00910768 0.00910896 0.0091103 0.0091117 0.00911316 0.00911468 0.00911626 0.0091179 0.0091196 0.00912135 0.00912317 0.00912504 0.00912698 0.00912897 0.00913102 0.00913313 0.0091353 0.00913753 0.00913982 0.00914217 0.00914458 0.00914706 0.0091496 0.0091522 0.00915487 0.0091576 0.0091604 0.00916326 0.0091662 0.0091692 0.00917228 0.00917543 0.00917865 0.00918195 0.00918533 0.00918879 0.00919233 0.00919595 0.00919966 0.00920347 0.00920736 0.00921135 0.00921544 0.00921964 0.00922394 0.00922836 0.00923289 0.00923754 0.00924233 0.00924724 0.0092523 0.00925751 0.00926288 0.00926841 0.00927413 0.00928004 0.00928615 0.00929247 0.00929904 0.00930587 0.00931296 0.00932035 0.0093281 0.00933622 0.00934469 0.00935363 0.00936312 0.00937315 0.00938373 0.0093951 0.00940733 0.00942042 0.00943442 0.00944965 0.00946613 0.00948388 0.00950294 0.00952344 0.00954537 0.00956875 0.00900874 0.00901029 0.0090119 0.00901359 0.00901535 0.00901719 0.00901909 0.00902107 0.00902312 0.00902525 0.00902744 0.00902971 0.00903205 0.00903446 0.00903695 0.00903951 0.00904214 0.00904484 0.00904762 0.00905048 0.00905341 0.00905641 0.0090595 0.00906266 0.0090659 0.00906922 0.00907263 0.00907611 0.00907969 0.00908335 0.00908709 0.00909093 0.00909486 0.00909888 0.009103 0.00910722 0.00911154 0.00911597 0.0091205 0.00912514 0.00912991 0.00913479 0.00913979 0.00914492 0.00915019 0.00915559 0.00916114 0.00916685 0.00917272 0.00917874 0.00918495 0.00919135 0.00919794 0.00920473 0.00921176 0.00921903 0.00922654 0.00923431 0.0092424 0.00925081 0.00925954 0.00926863 0.00927817 0.00928815 0.00929857 0.00930954 0.00932116 0.00933341 0.00934632 0.00936009 0.0093748 0.00939043 0.00940705 0.00942485 0.00944387 0.00946411 0.00948561 0.00950841 0.00953254 0.00955798 0.00890956 0.00891136 0.00891325 0.00891523 0.0089173 0.00891945 0.00892169 0.00892402 0.00892643 0.00892892 0.0089315 0.00893417 0.00893693 0.00893977 0.00894269 0.00894571 0.00894881 0.008952 0.00895527 0.00895864 0.0089621 0.00896565 0.00896929 0.00897302 0.00897685 0.00898078 0.00898481 0.00898893 0.00899315 0.00899748 0.00900192 0.00900646 0.00901111 0.00901588 0.00902076 0.00902576 0.00903088 0.00903613 0.00904151 0.00904702 0.00905267 0.00905847 0.00906441 0.00907051 0.00907677 0.00908319 0.00908979 0.00909658 0.00910357 0.00911074 0.00911813 0.00912575 0.00913361 0.00914171 0.00915008 0.00915875 0.00916771 0.00917697 0.00918662 0.00919664 0.00920705 0.00921788 0.00922923 0.00924109 0.00925347 0.00926647 0.00928019 0.00929463 0.00930979 0.00932586 0.0093429 0.0093609 0.00937991 0.00940006 0.00942139 0.00944389 0.00946759 0.00949251 0.00951866 0.00954604 0.00881008 0.00881215 0.00881432 0.00881659 0.00881897 0.00882144 0.00882402 0.00882669 0.00882946 0.00883234 0.00883531 0.00883839 0.00884156 0.00884484 0.00884821 0.00885169 0.00885527 0.00885895 0.00886274 0.00886663 0.00887062 0.00887472 0.00887893 0.00888325 0.00888768 0.00889223 0.00889689 0.00890166 0.00890655 0.00891157 0.0089167 0.00892197 0.00892736 0.00893289 0.00893855 0.00894435 0.00895029 0.00895639 0.00896263 0.00896903 0.0089756 0.00898233 0.00898923 0.00899633 0.00900361 0.00901108 0.00901876 0.00902666 0.00903479 0.00904314 0.00905175 0.00906063 0.00906978 0.00907921 0.00908896 0.00909906 0.0091095 0.00912029 0.00913151 0.00914317 0.00915528 0.00916786 0.00918103 0.00919477 0.00920909 0.0092241 0.00923987 0.00925642 0.00927375 0.009292 0.00931123 0.00933145 0.00935267 0.009375 0.00939846 0.00942306 0.0094488 0.0094757 0.00950376 0.00953299 0.00871026 0.0087126 0.00871506 0.00871762 0.00872031 0.00872311 0.00872603 0.00872905 0.0087322 0.00873546 0.00873883 0.00874232 0.00874592 0.00874963 0.00875347 0.00875741 0.00876148 0.00876566 0.00876997 0.00877439 0.00877893 0.0087836 0.00878839 0.0087933 0.00879834 0.00880352 0.00880882 0.00881425 0.00881983 0.00882554 0.0088314 0.0088374 0.00884355 0.00884985 0.00885631 0.00886293 0.00886971 0.00887667 0.0088838 0.00889111 0.00889861 0.00890631 0.0089142 0.0089223 0.00893063 0.00893918 0.00894796 0.008957 0.00896629 0.00897585 0.0089857 0.00899586 0.00900633 0.00901712 0.00902828 0.00903983 0.00905176 0.0090641 0.00907692 0.00909023 0.00910403 0.00911837 0.00913333 0.00914894 0.00916517 0.00918213 0.0091999 0.00921848 0.00923788 0.00925821 0.00927952 0.00930182 0.00932511 0.00934949 0.00937496 0.00940153 0.0094292 0.00945798 0.00948787 0.00951888 0.00861008 0.00861269 0.00861543 0.0086183 0.0086213 0.00862443 0.00862769 0.00863107 0.00863459 0.00863824 0.00864201 0.00864592 0.00864995 0.00865412 0.00865842 0.00866284 0.0086674 0.00867209 0.00867692 0.00868188 0.00868698 0.00869222 0.0086976 0.00870312 0.00870879 0.0087146 0.00872056 0.00872667 0.00873294 0.00873937 0.00874596 0.00875271 0.00875963 0.00876673 0.00877399 0.00878145 0.00878909 0.00879693 0.00880496 0.0088132 0.00882166 0.00883033 0.00883923 0.00884837 0.00885776 0.0088674 0.0088773 0.0088875 0.00889799 0.00890877 0.00891988 0.00893134 0.00894315 0.00895532 0.0089679 0.00898091 0.00899435 0.00900824 0.00902266 0.00903762 0.00905311 0.00906919 0.00908594 0.00910337 0.00912147 0.00914034 0.00916004 0.00918058 0.00920195 0.00922427 0.00924756 0.00927184 0.0092971 0.00932342 0.0093508 0.00937925 0.00940876 0.00943935 0.00947102 0.00950376 0.00850948 0.00851237 0.00851539 0.00851857 0.00852189 0.00852535 0.00852896 0.00853271 0.00853661 0.00854065 0.00854484 0.00854916 0.00855364 0.00855826 0.00856303 0.00856794 0.008573 0.00857821 0.00858357 0.00858908 0.00859474 0.00860057 0.00860654 0.00861268 0.00861898 0.00862544 0.00863207 0.00863887 0.00864585 0.008653 0.00866033 0.00866784 0.00867555 0.00868345 0.00869155 0.00869985 0.00870837 0.0087171 0.00872605 0.00873524 0.00874466 0.00875433 0.00876425 0.00877445 0.00878492 0.00879567 0.00880672 0.00881809 0.00882979 0.00884181 0.0088542 0.00886697 0.00888014 0.00889369 0.0089077 0.00892219 0.00893714 0.00895258 0.0089686 0.00898519 0.00900237 0.00902016 0.00903867 0.00905789 0.00907781 0.00909853 0.0091201 0.00914252 0.0091658 0.00919002 0.00921522 0.00924138 0.00926853 0.00929671 0.00932592 0.00935618 0.00938748 0.00941983 0.00945322 0.00948767 0.00840845 0.0084116 0.00841492 0.00841841 0.00842205 0.00842585 0.00842981 0.00843393 0.00843821 0.00844265 0.00844725 0.00845201 0.00845693 0.00846201 0.00846726 0.00847266 0.00847823 0.00848396 0.00848987 0.00849593 0.00850217 0.00850858 0.00851517 0.00852193 0.00852887 0.008536 0.00854331 0.0085508 0.00855849 0.00856638 0.00857447 0.00858276 0.00859126 0.00859998 0.00860892 0.00861809 0.00862749 0.00863713 0.00864701 0.00865716 0.00866757 0.00867825 0.00868921 0.00870047 0.00871204 0.00872391 0.00873612 0.00874868 0.00876159 0.00877487 0.00878855 0.00880265 0.00881717 0.00883212 0.00884757 0.00886352 0.00887999 0.00889698 0.00891458 0.0089328 0.00895163 0.00897112 0.00899135 0.00901231 0.00903402 0.00905654 0.00907992 0.00910417 0.00912929 0.00915534 0.00918237 0.00921036 0.00923932 0.0092693 0.00930029 0.00933231 0.00936535 0.00939942 0.00943451 0.00947063 0.00830693 0.00831036 0.00831398 0.00831777 0.00832174 0.00832589 0.00833021 0.0083347 0.00833937 0.00834422 0.00834924 0.00835443 0.0083598 0.00836535 0.00837107 0.00837698 0.00838306 0.00838933 0.00839577 0.00840241 0.00840923 0.00841624 0.00842344 0.00843083 0.00843842 0.00844622 0.00845422 0.00846242 0.00847084 0.00847947 0.00848832 0.0084974 0.00850671 0.00851626 0.00852605 0.00853609 0.00854639 0.00855695 0.00856778 0.0085789 0.00859031 0.00860201 0.00861402 0.00862636 0.00863903 0.00865205 0.00866541 0.00867917 0.00869332 0.00870786 0.00872283 0.00873826 0.00875415 0.0087705 0.00878738 0.0088048 0.00882277 0.0088413 0.00886047 0.00888029 0.00890076 0.00892192 0.00894383 0.00896652 0.00898996 0.00901423 0.00903938 0.0090654 0.0090923 0.00912014 0.00914894 0.0091787 0.00920942 0.00924115 0.00927389 0.00930763 0.00934237 0.00937813 0.0094149 0.00945268 0.00820489 0.00820861 0.00821253 0.00821664 0.00822094 0.00822543 0.00823011 0.00823499 0.00824005 0.0082453 0.00825075 0.00825638 0.00826221 0.00826823 0.00827444 0.00828085 0.00828745 0.00829426 0.00830126 0.00830846 0.00831587 0.00832348 0.00833131 0.00833934 0.0083476 0.00835607 0.00836476 0.00837368 0.00838283 0.00839222 0.00840185 0.00841172 0.00842185 0.00843224 0.00844289 0.00845381 0.00846502 0.00847652 0.0084883 0.00850039 0.00851281 0.00852555 0.00853861 0.00855204 0.00856583 0.00857999 0.00859453 0.0086095 0.00862488 0.00864069 0.00865696 0.00867372 0.00869097 0.00870872 0.00872703 0.00874591 0.00876537 0.00878543 0.00880616 0.00882756 0.00884964 0.00887243 0.00889601 0.00892037 0.00894551 0.0089715 0.00899837 0.00902612 0.00905475 0.00908433 0.00911486 0.00914635 0.0091788 0.00921224 0.00924668 0.00928212 0.00931855 0.00935598 0.00939441 0.00943384 0.00810231 0.00810632 0.00811054 0.00811497 0.00811961 0.00812445 0.0081295 0.00813475 0.00814021 0.00814588 0.00815175 0.00815783 0.00816412 0.00817062 0.00817733 0.00818424 0.00819137 0.00819872 0.00820628 0.00821406 0.00822206 0.00823029 0.00823875 0.00824743 0.00825635 0.0082655 0.0082749 0.00828454 0.00829444 0.00830459 0.008315 0.00832568 0.00833663 0.00834787 0.00835939 0.0083712 0.00838333 0.00839576 0.00840851 0.00842159 0.00843502 0.0084488 0.00846293 0.00847746 0.00849237 0.00850768 0.0085234 0.00853958 0.0085562 0.00857328 0.00859084 0.00860894 0.00862755 0.00864669 0.00866642 0.00868676 0.0087077 0.00872927 0.00875153 0.0087745 0.00879817 0.00882257 0.00884778 0.00887378 0.0089006 0.00892826 0.00895681 0.00898625 0.00901659 0.00904786 0.00908009 0.00911328 0.00914742 0.00918255 0.00921867 0.00925578 0.00929388 0.00933297 0.00937305 0.00941413 0.00799915 0.00800346 0.00800798 0.00801274 0.00801771 0.00802291 0.00802833 0.00803397 0.00803983 0.00804592 0.00805223 0.00805876 0.00806551 0.00807249 0.0080797 0.00808713 0.00809479 0.00810268 0.00811081 0.00811918 0.00812778 0.00813662 0.00814571 0.00815505 0.00816464 0.00817449 0.00818459 0.00819496 0.00820561 0.00821653 0.00822773 0.00823922 0.00825101 0.0082631 0.00827549 0.00828821 0.00830126 0.00831464 0.00832835 0.00834243 0.00835689 0.00837171 0.00838692 0.00840254 0.00841858 0.00843504 0.00845195 0.00846933 0.0084872 0.00850554 0.00852441 0.00854383 0.0085638 0.00858433 0.00860547 0.00862725 0.00864966 0.00867272 0.00869651 0.00872102 0.00874625 0.00877224 0.00879905 0.00882668 0.00885512 0.00888443 0.00891464 0.00894574 0.00897775 0.00901069 0.00904459 0.00907945 0.00911526 0.00915206 0.00918984 0.00922861 0.00926837 0.00930911 0.00935084 0.00939356 0.00789539 0.00789999 0.00790483 0.00790991 0.00791523 0.00792078 0.00792658 0.00793261 0.00793888 0.00794539 0.00795213 0.00795912 0.00796634 0.00797381 0.00798152 0.00798947 0.00799767 0.00800612 0.00801482 0.00802377 0.00803297 0.00804244 0.00805217 0.00806217 0.00807244 0.00808298 0.0080938 0.00810491 0.00811631 0.00812801 0.00814 0.00815231 0.00816494 0.00817789 0.00819116 0.00820478 0.00821876 0.00823309 0.00824778 0.00826286 0.00827834 0.00829422 0.0083105 0.00832722 0.0083444 0.00836201 0.0083801 0.0083987 0.0084178 0.00843741 0.00845758 0.00847832 0.00849964 0.00852154 0.00854409 0.0085673 0.00859117 0.00861571 0.008641 0.00866703 0.00869381 0.00872137 0.00874976 0.00877898 0.00880904 0.00883997 0.0088718 0.00890454 0.00893819 0.00897278 0.00900833 0.00904484 0.00908231 0.00912076 0.00916019 0.00920061 0.00924202 0.00928441 0.00932779 0.00937216 0.00779099 0.00779589 0.00780104 0.00780646 0.00781212 0.00781804 0.00782422 0.00783064 0.00783733 0.00784426 0.00785145 0.00785889 0.00786659 0.00787455 0.00788277 0.00789124 0.00789998 0.00790899 0.00791826 0.0079278 0.00793762 0.00794772 0.00795809 0.00796875 0.0079797 0.00799095 0.00800249 0.00801434 0.0080265 0.00803897 0.00805177 0.0080649 0.00807837 0.00809218 0.00810635 0.00812087 0.00813578 0.00815107 0.00816674 0.00818283 0.00819933 0.00821626 0.00823362 0.00825145 0.00826975 0.00828853 0.0083078 0.00832761 0.00834795 0.00836882 0.00839028 0.00841233 0.008435 0.00845827 0.00848221 0.00850684 0.00853215 0.00855816 0.00858494 0.00861247 0.00864078 0.00866989 0.00869983 0.00873063 0.00876227 0.0087948 0.00882824 0.0088626 0.00889787 0.0089341 0.00897128 0.00900942 0.00904853 0.00908863 0.00912971 0.00917177 0.00921483 0.00925887 0.00930391 0.00934993 0.00768592 0.00769113 0.00769661 0.00770236 0.00770838 0.00771466 0.00772122 0.00772805 0.00773514 0.00774251 0.00775014 0.00775805 0.00776623 0.00777468 0.00778341 0.00779241 0.0078017 0.00781126 0.00782112 0.00783125 0.00784168 0.00785241 0.00786344 0.00787476 0.0078864 0.00789835 0.00791062 0.00792321 0.00793613 0.00794939 0.00796299 0.00797694 0.00799126 0.00800595 0.008021 0.00803644 0.00805228 0.00806853 0.00808518 0.00810227 0.00811981 0.00813779 0.00815623 0.00817516 0.0081946 0.00821453 0.00823498 0.008256 0.00827757 0.0082997 0.00832244 0.00834581 0.00836981 0.00839444 0.00841977 0.0084458 0.00847254 0.00850001 0.00852825 0.00855728 0.0085871 0.00861773 0.00864922 0.00868157 0.00871479 0.0087489 0.00878393 0.00881989 0.00885677 0.00889461 0.00893342 0.00897319 0.00901393 0.00905566 0.00909839 0.0091421 0.0091868 0.0092325 0.0092792 0.00932689 0.00758017 0.00758569 0.00759149 0.00759758 0.00760396 0.00761062 0.00761756 0.00762479 0.00763231 0.00764011 0.00764819 0.00765656 0.00766522 0.00767417 0.00768342 0.00769295 0.00770279 0.00771292 0.00772335 0.00773409 0.00774514 0.0077565 0.00776818 0.00778017 0.0077925 0.00780516 0.00781815 0.00783149 0.00784518 0.00785923 0.00787364 0.00788841 0.00790358 0.00791913 0.00793508 0.00795143 0.00796821 0.00798542 0.00800306 0.00802115 0.00803972 0.00805876 0.00807828 0.00809831 0.00811888 0.00813996 0.00816159 0.00818381 0.00820661 0.00823 0.00825402 0.00827869 0.00830401 0.00833 0.0083567 0.00838413 0.00841229 0.00844119 0.00847089 0.0085014 0.00853272 0.00856486 0.00859788 0.00863177 0.00866654 0.00870222 0.00873883 0.00877638 0.00881486 0.0088543 0.00889472 0.00893612 0.00897849 0.00902186 0.00906622 0.00911159 0.00915795 0.00920531 0.00925368 0.00930305 0.00747371 0.00747955 0.00748568 0.00749211 0.00749885 0.00750588 0.00751322 0.00752086 0.00752879 0.00753703 0.00754557 0.00755441 0.00756356 0.00757301 0.00758277 0.00759284 0.00760322 0.00761392 0.00762494 0.00763628 0.00764795 0.00765995 0.00767228 0.00768495 0.00769797 0.00771134 0.00772506 0.00773915 0.00775361 0.00776845 0.00778366 0.00779927 0.00781529 0.00783171 0.00784855 0.00786582 0.00788354 0.0079017 0.00792032 0.00793943 0.00795902 0.00797911 0.00799971 0.00802085 0.00804254 0.00806477 0.00808758 0.008111 0.00813502 0.00815966 0.00818494 0.00821091 0.00823756 0.00826488 0.00829295 0.00832176 0.00835133 0.00838166 0.00841281 0.00844478 0.00847758 0.00851122 0.00854576 0.00858118 0.0086175 0.00865473 0.00869291 0.00873204 0.00877211 0.00881315 0.00885518 0.0088982 0.0089422 0.0089872 0.00903321 0.00908023 0.00912825 0.00917729 0.00922734 0.0092784 0.00736652 0.00737267 0.00737914 0.00738592 0.00739303 0.00740044 0.00740817 0.00741622 0.00742458 0.00743326 0.00744226 0.00745157 0.0074612 0.00747116 0.00748144 0.00749205 0.00750299 0.00751426 0.00752586 0.00753781 0.00755009 0.00756273 0.00757572 0.00758907 0.00760278 0.00761686 0.00763132 0.00764615 0.00766138 0.00767701 0.00769303 0.00770947 0.00772634 0.00774364 0.00776137 0.00777955 0.00779821 0.00781734 0.00783694 0.00785705 0.00787767 0.00789881 0.00792048 0.00794272 0.00796553 0.00798892 0.00801289 0.0080375 0.00806275 0.00808862 0.00811518 0.00814243 0.00817039 0.00819905 0.00822847 0.00825866 0.00828962 0.00832137 0.00835395 0.00838738 0.00842165 0.00845678 0.00849282 0.00852976 0.00856761 0.0086064 0.00864614 0.00868684 0.0087285 0.00877114 0.00881478 0.00885941 0.00890504 0.00895169 0.00899935 0.00904803 0.00909773 0.00914845 0.0092002 0.00925297 0.00725858 0.00726505 0.00727186 0.007279 0.00728647 0.00729427 0.0073024 0.00731086 0.00731965 0.00732877 0.00733823 0.00734802 0.00735814 0.00736861 0.00737941 0.00739056 0.00740205 0.00741389 0.00742609 0.00743864 0.00745155 0.00746483 0.00747848 0.00749249 0.0075069 0.0075217 0.00753688 0.00755247 0.00756847 0.00758489 0.00760172 0.00761899 0.00763671 0.00765488 0.0076735 0.0076926 0.00771219 0.00773228 0.00775286 0.00777397 0.00779562 0.00781781 0.00784056 0.00786389 0.00788782 0.00791234 0.00793749 0.00796328 0.00798974 0.00801685 0.00804466 0.0080732 0.00810246 0.00813244 0.00816321 0.00819477 0.00822712 0.00826027 0.00829428 0.00832916 0.00836489 0.0084015 0.00843904 0.00847749 0.00851687 0.00855719 0.00859849 0.00864076 0.008684 0.00872824 0.00877349 0.00881975 0.00886701 0.0089153 0.00896463 0.00901498 0.00906636 0.00911879 0.00917225 0.00922675 0.00714986 0.00715667 0.00716382 0.00717131 0.00717915 0.00718734 0.00719587 0.00720475 0.00721397 0.00722354 0.00723346 0.00724373 0.00725435 0.00726532 0.00727665 0.00728834 0.00730039 0.0073128 0.00732559 0.00733874 0.00735228 0.0073662 0.00738051 0.00739521 0.00741031 0.00742582 0.00744174 0.00745807 0.00747484 0.00749205 0.00750969 0.00752779 0.00754636 0.0075654 0.00758491 0.00760493 0.00762545 0.00764649 0.00766805 0.00769016 0.00771284 0.00773608 0.00775989 0.00778431 0.00780935 0.00783501 0.00786132 0.0078883 0.00791596 0.0079443 0.00797336 0.00800317 0.00803372 0.00806503 0.00809713 0.00813005 0.00816378 0.00819833 0.00823376 0.00827007 0.00830726 0.00834534 0.00838437 0.00842433 0.00846523 0.00850709 0.00854994 0.00859378 0.00863861 0.00868445 0.00873131 0.00877919 0.0088281 0.00887804 0.00892904 0.00898107 0.00903416 0.0090883 0.00914349 0.00919974 0.00704036 0.00704749 0.00705499 0.00706285 0.00707107 0.00707965 0.00708858 0.00709788 0.00710754 0.00711756 0.00712794 0.00713869 0.00714981 0.00716129 0.00717315 0.00718538 0.00719798 0.00721097 0.00722435 0.00723811 0.00725227 0.00726684 0.00728181 0.00729718 0.00731297 0.0073292 0.00734585 0.00736293 0.00738047 0.00739847 0.00741692 0.00743584 0.00745526 0.00747517 0.00749557 0.0075165 0.00753796 0.00755995 0.00758248 0.00760559 0.00762928 0.00765356 0.00767843 0.00770395 0.0077301 0.00775689 0.00778435 0.0078125 0.00784136 0.00787093 0.00790123 0.00793231 0.00796415 0.00799676 0.00803019 0.00806446 0.00809956 0.00813551 0.00817235 0.00821009 0.00824872 0.00828828 0.00832879 0.00837025 0.00841267 0.00845607 0.00850048 0.00854588 0.00859229 0.00863973 0.00868821 0.00873773 0.00878828 0.0088399 0.00889257 0.00894631 0.00900111 0.00905698 0.00911393 0.00917195 0.00693005 0.00693753 0.00694538 0.0069536 0.0069622 0.00697117 0.00698052 0.00699024 0.00700033 0.00701081 0.00702166 0.00703289 0.0070445 0.00705649 0.00706888 0.00708165 0.00709482 0.00710838 0.00712235 0.00713672 0.00715151 0.00716671 0.00718234 0.00719839 0.00721488 0.00723181 0.00724919 0.00726702 0.00728533 0.00730411 0.00732337 0.00734312 0.00736338 0.00738416 0.00740545 0.00742728 0.00744967 0.00747261 0.00749611 0.00752021 0.00754492 0.00757024 0.00759617 0.00762276 0.00765001 0.00767793 0.00770653 0.00773586 0.00776592 0.00779669 0.00782824 0.00786057 0.00789369 0.00792761 0.00796236 0.00799797 0.00803444 0.00807177 0.00811002 0.00814918 0.00818926 0.00823028 0.00827227 0.00831523 0.00835917 0.00840411 0.00845006 0.00849704 0.00854504 0.00859408 0.00864419 0.00869534 0.00874756 0.00880085 0.00885522 0.00891068 0.00896721 0.00902484 0.00908356 0.00914337 0.00681892 0.00682674 0.00683495 0.00684354 0.00685253 0.0068619 0.00687166 0.0068818 0.00689234 0.00690327 0.00691459 0.0069263 0.00693841 0.00695092 0.00696383 0.00697715 0.00699087 0.00700501 0.00701957 0.00703455 0.00704996 0.00706581 0.00708209 0.00709881 0.00711599 0.00713364 0.00715175 0.00717033 0.0071894 0.00720896 0.00722903 0.0072496 0.0072707 0.00729234 0.00731451 0.00733725 0.00736056 0.00738444 0.00740891 0.007434 0.00745972 0.00748606 0.00751305 0.00754071 0.00756907 0.0075981 0.00762785 0.00765834 0.00768958 0.00772157 0.00775434 0.00778792 0.00782232 0.00785753 0.0078936 0.00793055 0.00796837 0.00800709 0.00804673 0.00808731 0.00812883 0.00817131 0.00821478 0.00825924 0.0083047 0.00835117 0.00839868 0.00844723 0.00849683 0.00854749 0.00859922 0.00865203 0.00870591 0.0087609 0.00881698 0.00887417 0.00893245 0.00899186 0.00905237 0.009114 0.00670696 0.00671513 0.0067237 0.00673267 0.00674204 0.00675181 0.00676199 0.00677256 0.00678354 0.00679492 0.00680671 0.00681891 0.00683152 0.00684454 0.00685798 0.00687184 0.00688613 0.00690085 0.006916 0.00693158 0.00694761 0.0069641 0.00698103 0.00699843 0.0070163 0.00703466 0.00705349 0.00707281 0.00709264 0.00711299 0.00713385 0.00715524 0.00717719 0.00719968 0.00722273 0.00724636 0.00727059 0.00729542 0.00732085 0.00734692 0.00737364 0.00740101 0.00742904 0.00745778 0.00748722 0.00751737 0.00754825 0.0075799 0.00761232 0.00764551 0.0076795 0.00771433 0.00774999 0.00778649 0.00782387 0.00786216 0.00790133 0.00794142 0.00798246 0.00802446 0.00806742 0.00811135 0.0081563 0.00820226 0.00824923 0.00829724 0.00834631 0.00839644 0.00844764 0.00849992 0.00855329 0.00860776 0.00866333 0.00872002 0.00877783 0.00883677 0.00889683 0.00895803 0.00902037 0.00908384 0.00659416 0.00660268 0.00661162 0.00662097 0.00663073 0.0066409 0.0066515 0.0066625 0.00667392 0.00668576 0.00669803 0.00671071 0.00672382 0.00673736 0.00675133 0.00676573 0.00678057 0.00679587 0.00681161 0.00682779 0.00684445 0.00686157 0.00687916 0.00689723 0.00691579 0.00693484 0.0069544 0.00697446 0.00699505 0.00701618 0.00703783 0.00706004 0.00708282 0.00710617 0.00713009 0.00715461 0.00717976 0.00720552 0.0072319 0.00725895 0.00728667 0.00731506 0.00734413 0.00737392 0.00740445 0.00743571 0.00746771 0.00750051 0.0075341 0.00756848 0.0076037 0.00763976 0.00767669 0.00771447 0.00775316 0.00779276 0.00783329 0.00787475 0.00791718 0.00796059 0.00800498 0.00805037 0.00809679 0.00814425 0.00819274 0.0082423 0.00829293 0.00834465 0.00839745 0.00845136 0.00850638 0.00856253 0.0086198 0.00867821 0.00873777 0.00879847 0.00886033 0.00892335 0.00898754 0.00905289 0.00648051 0.00648939 0.00649869 0.00650842 0.00651858 0.00652916 0.00654018 0.00655161 0.00656348 0.00657578 0.00658852 0.00660169 0.0066153 0.00662935 0.00664385 0.0066588 0.0066742 0.00669006 0.00670639 0.00672318 0.00674045 0.0067582 0.00677645 0.00679518 0.00681442 0.00683418 0.00685446 0.00687526 0.0068966 0.0069185 0.00694095 0.00696396 0.00698757 0.00701176 0.00703655 0.00706196 0.00708802 0.00711471 0.00714204 0.00717005 0.00719876 0.00722816 0.00725827 0.00728912 0.00732072 0.00735308 0.00738621 0.00742015 0.0074549 0.00749047 0.00752689 0.00756419 0.00760237 0.00764143 0.00768141 0.00772234 0.00776421 0.00780703 0.00785085 0.00789567 0.0079415 0.00798834 0.00803624 0.0080852 0.00813522 0.00818632 0.00823852 0.00829183 0.00834624 0.00840179 0.00845848 0.00851632 0.0085753 0.00863545 0.00869677 0.00875927 0.00882295 0.00888781 0.00895387 0.00902113 0.006366 0.00637524 0.00638492 0.00639503 0.00640559 0.00641658 0.00642802 0.00643989 0.00645221 0.00646497 0.00647818 0.00649183 0.00650594 0.00652051 0.00653553 0.00655102 0.00656698 0.00658341 0.00660033 0.00661772 0.0066356 0.00665399 0.00667288 0.00669228 0.0067122 0.00673266 0.00675365 0.00677518 0.00679727 0.00681994 0.00684317 0.00686699 0.00689141 0.00691645 0.0069421 0.0069684 0.00699535 0.00702296 0.00705123 0.00708021 0.0071099 0.00714031 0.00717144 0.00720334 0.00723601 0.00726946 0.0073037 0.00733877 0.00737469 0.00741144 0.00744906 0.00748758 0.00752701 0.00756734 0.00760862 0.00765086 0.00769407 0.00773825 0.00778346 0.00782969 0.00787694 0.00792524 0.00797462 0.00802508 0.00807662 0.00812927 0.00818305 0.00823796 0.008294 0.0083512 0.00840957 0.00846911 0.00852982 0.00859173 0.00865483 0.00871914 0.00878466 0.0088514 0.00891936 0.00898855 0.00625062 0.00626023 0.00627028 0.00628079 0.00629174 0.00630315 0.00631501 0.00632732 0.00634008 0.00635331 0.00636699 0.00638113 0.00639574 0.00641082 0.00642637 0.0064424 0.00645891 0.00647592 0.00649341 0.0065114 0.0065299 0.00654892 0.00656845 0.00658851 0.00660911 0.00663025 0.00665195 0.00667421 0.00669704 0.00672047 0.00674448 0.0067691 0.00679434 0.00682021 0.00684672 0.00687389 0.00690173 0.00693026 0.00695946 0.0069894 0.00702006 0.00705146 0.00708361 0.00711655 0.00715028 0.00718481 0.00722016 0.00725636 0.00729343 0.00733135 0.00737017 0.00740991 0.00745058 0.00749217 0.00753474 0.00757829 0.00762284 0.00766838 0.00771496 0.0077626 0.00781129 0.00786104 0.0079119 0.00796387 0.00801694 0.00807115 0.00812651 0.00818302 0.0082407 0.00829956 0.00835962 0.00842087 0.00848333 0.00854702 0.00861193 0.00867808 0.00874546 0.0088141 0.008884 0.00895515 0.00613437 0.00614435 0.00615479 0.00616568 0.00617704 0.00618887 0.00620115 0.0062139 0.00622711 0.0062408 0.00625496 0.00626958 0.00628469 0.00630028 0.00631636 0.00633293 0.00634999 0.00636756 0.00638563 0.00640422 0.00642332 0.00644296 0.00646314 0.00648385 0.00650512 0.00652695 0.00654935 0.00657233 0.0065959 0.00662008 0.00664487 0.00667027 0.00669632 0.00672303 0.00675038 0.00677841 0.00680714 0.00683657 0.0068667 0.00689758 0.00692922 0.00696161 0.00699476 0.00702873 0.00706352 0.00709912 0.00713557 0.00717289 0.0072111 0.00725018 0.00729019 0.00733114 0.00737304 0.0074159 0.00745975 0.00750461 0.00755048 0.00759738 0.00764535 0.00769439 0.00774451 0.00779572 0.00784806 0.00790153 0.00795614 0.00801191 0.00806886 0.00812699 0.00818631 0.00824685 0.00830861 0.0083716 0.00843582 0.00850131 0.00856805 0.00863606 0.00870534 0.00877591 0.00884777 0.00892092 0.00601724 0.0060276 0.00603842 0.00604972 0.00606148 0.00607372 0.00608643 0.00609962 0.00611329 0.00612743 0.00614206 0.00615718 0.00617278 0.00618888 0.00620549 0.00622259 0.0062402 0.00625833 0.00627698 0.00629615 0.00631587 0.00633613 0.00635693 0.00637829 0.00640023 0.00642274 0.00644584 0.00646953 0.00649383 0.00651876 0.00654431 0.0065705 0.00659735 0.00662487 0.00665306 0.00668195 0.00671156 0.00674189 0.00677294 0.00680475 0.00683734 0.006870