<?xml version="1.0"?> 
<VTKFile type="StructuredGrid" version="0.1"> 
<StructuredGrid WholeExtent="0 79 0 79 0 0"> 
<Piece Extent="0 79 0 79 0 0"> 
<PointData Scalars="gradient">
<DataArray type="Float32" Name="gradient" format="ascii" NumberOfComponents="1"> 
0.0096 0.0096 0.0096 0.0096 0.0096 0.0096 0.0096 0.0096 0.0096 0.0096 0.0096 0.0096 0.0096 0.0096 0.0096 0.0096 0.0096 0.0096 0.0096 0.0096 0.0096 0.0096 0.0096 0.0096 0.0096 0.0096 0.0096 0.0096 0.0096 0.0096 0.0096 0.0096 0.0096 0.0096 0.0096 0.0096 0.0096 0.0096 0.0096 0.0096 0.0096 0.0096 0.0096 0.0096 0.0096 0.0096 0.0096 0.0096 0.0096 0.0096 0.0096 0.0096 0.0096 0.0096 0.0096 0.0096 0.0096 0.0096 0.0096 0.0096 0.0096 0.0096 0.0096 0.0096 0.0096 0.0096 0.0096 0.0096 0.0096 0.0096 0.0096 0.0096 0.0096 0.0096 0.0096 0.0096 0.0096 0.0096 0.0096 0.0096 0.00959755 0.00959492 0.0095926 0.00959061 0.00958892 0.00958736 0.00958586 0.0095844 0.00958299 0.00958164 0.00958033 0.00957907 0.00957786 0.00957669 0.00957556 0.00957447 0.00957342 0.00957243 0.00957149 0.00957059 0.00956976 0.00956899 0.00956829 0.00956765 0.00956708 0.00956659 0.00956618 0.00956584 0.00956558 0.00956541 0.00956532 0.00956532 0.00956539 0.00956555 0.0095658 0.00956612 0.00956651 0.00956698 0.00956752 0.00956812 0.00956878 0.00956949 0.00957026 0.00957108 0.00957193 0.00957282 0.00957374 0.00957469 0.00957565 0.00957664 0.00957764 0.00957864 0.00957965 0.00958067 0.00958168 0.00958269 0.00958369 0.00958468 0.00958566 0.00958662 0.00958757 0.0095885 0.0095894 0.00959029 0.00959115 0.00959199 0.0095928 0.00959358 0.00959433 0.00959505 0.00959573 0.00959638 0.00959699 0.00959755 0.00959807 0.00959855 0.00959897 0.00959933 0.00959962 0.00959985 0.00959285 0.00958819 0.009584 0.00958029 0.00957705 0.00957402 0.00957108 0.00956825 0.00956552 0.00956289 0.00956033 0.00955787 0.0095555 0.0095532 0.00955098 0.00954884 0.00954678 0.00954483 0.00954297 0.00954121 0.00953956 0.00953804 0.00953663 0.00953535 0.00953422 0.00953322 0.00953238 0.00953168 0.00953114 0.00953076 0.00953054 0.00953048 0.00953058 0.00953084 0.00953126 0.00953184 0.00953255 0.00953342 0.00953442 0.00953555 0.00953679 0.00953815 0.00953962 0.00954117 0.00954281 0.00954452 0.00954631 0.00954814 0.00955001 0.00955194 0.00955389 0.00955585 0.00955784 0.00955983 0.00956183 0.00956381 0.00956579 0.00956776 0.00956971 0.00957162 0.00957352 0.00957538 0.0095772 0.00957898 0.00958073 0.00958242 0.00958407 0.00958566 0.0095872 0.00958867 0.00959009 0.00959143 0.00959271 0.00959392 0.00959504 0.00959607 0.00959702 0.00959786 0.00959859 0.00959922 0.00958633 0.00958002 0.00957426 0.00956905 0.00956437 0.00955995 0.00955569 0.00955156 0.00954758 0.00954373 0.00954 0.00953638 0.00953289 0.00952951 0.00952625 0.00952309 0.00952006 0.00951717 0.00951442 0.00951182 0.00950937 0.00950711 0.00950501 0.0095031 0.00950138 0.00949988 0.00949858 0.0094975 0.00949664 0.00949602 0.00949563 0.00949547 0.00949554 0.00949585 0.00949639 0.00949715 0.00949813 0.00949932 0.00950072 0.0095023 0.00950405 0.00950598 0.00950808 0.0095103 0.00951265 0.00951512 0.0095177 0.00952036 0.00952309 0.00952589 0.00952874 0.00953162 0.00953454 0.00953748 0.00954042 0.00954336 0.00954629 0.00954922 0.00955211 0.00955497 0.0095578 0.00956059 0.00956333 0.00956602 0.00956865 0.00957122 0.00957372 0.00957614 0.0095785 0.00958077 0.00958296 0.00958505 0.00958706 0.00958895 0.00959074 0.00959242 0.00959398 0.00959539 0.00959667 0.0095978 0.00957823 0.00957055 0.00956343 0.00955688 0.00955088 0.00954518 0.00953966 0.00953432 0.00952916 0.00952416 0.0095193 0.00951459 0.00951003 0.00950562 0.00950134 0.00949721 0.00949324 0.00948945 0.00948584 0.00948241 0.00947918 0.00947618 0.0094734 0.00947085 0.00946856 0.00946653 0.00946477 0.00946328 0.00946208 0.00946119 0.00946058 0.00946028 0.00946028 0.00946058 0.00946118 0.00946207 0.00946323 0.00946468 0.0094664 0.00946837 0.00947056 0.00947299 0.00947564 0.00947846 0.00948145 0.00948462 0.00948793 0.00949134 0.00949486 0.00949849 0.00950219 0.00950594 0.00950974 0.00951359 0.00951744 0.0095213 0.00952516 0.00952902 0.00953284 0.00953663 0.00954038 0.0095441 0.00954775 0.00955134 0.00955486 0.00955831 0.00956168 0.00956496 0.00956816 0.00957125 0.00957424 0.00957712 0.00957989 0.00958253 0.00958504 0.00958742 0.00958965 0.00959173 0.00959363 0.00959537 0.00956875 0.00955987 0.00955156 0.0095438 0.00953659 0.0095297 0.00952301 0.00951653 0.00951026 0.00950416 0.00949824 0.00949248 0.0094869 0.00948149 0.00947625 0.00947118 0.00946631 0.00946164 0.00945719 0.00945295 0.00944896 0.00944524 0.00944178 0.00943859 0.00943572 0.00943316 0.00943091 0.009429 0.00942744 0.00942623 0.00942538 0.00942489 0.00942476 0.009425 0.0094256 0.00942656 0.00942786 0.0094295 0.00943147 0.00943375 0.00943631 0.00943917 0.0094423 0.00944565 0.00944922 0.009453 0.00945697 0.00946109 0.00946535 0.00946974 0.00947424 0.0094788 0.00948344 0.00948814 0.00949287 0.00949761 0.00950237 0.00950713 0.00951186 0.00951655 0.00952122 0.00952584 0.00953039 0.00953488 0.0095393 0.00954364 0.00954788 0.00955203 0.00955608 0.00956001 0.00956383 0.00956753 0.0095711 0.00957452 0.0095778 0.00958093 0.0095839 0.00958669 0.00958929 0.00959171 0.00955798 0.00954806 0.00953868 0.00952983 0.00952151 0.00951351 0.00950573 0.00949818 0.00949086 0.00948373 0.0094768 0.00947005 0.00946349 0.00945713 0.00945096 0.00944499 0.00943924 0.00943373 0.00942846 0.00942344 0.0094187 0.00941426 0.00941013 0.00940631 0.00940284 0.00939974 0.009397 0.00939464 0.00939269 0.00939114 0.00939 0.00938928 0.00938899 0.00938911 0.00938967 0.00939063 0.00939199 0.00939376 0.00939592 0.00939844 0.00940131 0.00940452 0.00940805 0.00941186 0.00941594 0.00942028 0.00942485 0.0094296 0.00943453 0.00943963 0.00944486 0.00945019 0.00945562 0.00946113 0.00946669 0.00947228 0.00947789 0.00948352 0.00948913 0.00949471 0.00950027 0.00950578 0.00951122 0.0095166 0.00952191 0.00952713 0.00953225 0.00953727 0.00954219 0.00954698 0.00955164 0.00955617 0.00956057 0.00956481 0.00956889 0.00957282 0.00957657 0.00958012 0.00958348 0.00958665 0.00954604 0.00953519 0.00952484 0.00951499 0.00950565 0.00949662 0.00948783 0.00947928 0.00947097 0.00946287 0.00945497 0.00944727 0.00943979 0.00943251 0.00942546 0.00941862 0.00941202 0.00940569 0.00939963 0.00939384 0.00938836 0.00938323 0.00937843 0.00937397 0.00936991 0.00936626 0.00936301 0.00936018 0.00935781 0.00935589 0.00935444 0.00935345 0.00935294 0.0093529 0.00935335 0.00935426 0.00935563 0.00935746 0.00935975 0.00936244 0.00936554 0.00936903 0.00937291 0.0093771 0.00938161 0.00938644 0.00939154 0.00939686 0.00940239 0.00940814 0.00941406 0.0094201 0.00942626 0.00943254 0.00943888 0.00944527 0.0094517 0.00945817 0.00946462 0.00947106 0.00947748 0.00948386 0.00949018 0.00949644 0.00950263 0.00950873 0.00951472 0.00952061 0.0095264 0.00953206 0.00953758 0.00954297 0.00954821 0.00955329 0.0095582 0.00956295 0.00956751 0.00957187 0.00957603 0.00957999 0.00953299 0.00952129 0.00951006 0.00949931 0.00948902 0.00947904 0.0094693 0.00945982 0.00945057 0.00944155 0.00943274 0.00942415 0.00941577 0.00940763 0.00939972 0.00939205 0.00938463 0.00937751 0.00937068 0.00936414 0.00935794 0.00935212 0.00934665 0.00934157 0.00933691 0.00933269 0.00932892 0.00932561 0.00932279 0.00932048 0.00931866 0.00931737 0.0093166 0.00931635 0.00931664 0.00931745 0.00931877 0.0093206 0.00932293 0.00932574 0.00932899 0.0093327 0.00933685 0.00934136 0.00934624 0.00935148 0.00935704 0.00936286 0.00936894 0.00937527 0.00938181 0.0093885 0.00939534 0.00940233 0.00940941 0.00941655 0.00942377 0.00943103 0.0094383 0.00944556 0.00945282 0.00946005 0.00946722 0.00947434 0.00948139 0.00948836 0.00949522 0.00950198 0.00950864 0.00951516 0.00952155 0.00952779 0.0095339 0.00953983 0.0095456 0.00955119 0.0095566 0.0095618 0.00956679 0.00957157 0.00951888 0.00950641 0.00949439 0.00948279 0.00947163 0.00946077 0.00945015 0.00943979 0.00942967 0.00941978 0.00941011 0.00940066 0.00939144 0.00938247 0.00937374 0.00936526 0.00935706 0.00934917 0.00934159 0.00933432 0.00932742 0.00932091 0.00931479 0.00930907 0.00930381 0.00929902 0.00929471 0.00929089 0.00928761 0.00928487 0.00928267 0.00928102 0.00927995 0.00927945 0.00927953 0.00928017 0.00928138 0.00928315 0.00928548 0.00928832 0.00929167 0.00929553 0.00929987 0.00930463 0.0093098 0.00931538 0.00932134 0.00932759 0.00933415 0.00934101 0.00934809 0.00935537 0.00936284 0.00937049 0.00937826 0.00938611 0.00939406 0.00940208 0.00941012 0.00941817 0.00942623 0.00943428 0.00944229 0.00945023 0.00945813 0.00946595 0.00947367 0.00948129 0.00948881 0.0094962 0.00950345 0.00951056 0.00951753 0.00952433 0.00953096 0.00953741 0.00954368 0.00954974 0.00955559 0.00956124 0.00950376 0.00949059 0.00947783 0.00946547 0.0094535 0.00944182 0.00943039 0.0094192 0.00940826 0.00939754 0.00938706 0.0093768 0.00936678 0.00935701 0.0093475 0.00933825 0.00932929 0.00932065 0.00931234 0.00930436 0.00929676 0.00928958 0.0092828 0.00927645 0.00927059 0.00926522 0.00926036 0.00925602 0.00925224 0.00924905 0.00924642 0.00924439 0.00924298 0.00924218 0.009242 0.00924242 0.00924346 0.00924511 0.00924736 0.00925018 0.00925356 0.00925749 0.00926196 0.00926689 0.00927229 0.00927815 0.00928442 0.00929104 0.00929801 0.00930532 0.0093129 0.00932071 0.00932874 0.009337 0.00934539 0.0093539 0.00936254 0.00937127 0.00938004 0.00938885 0.00939768 0.00940652 0.00941532 0.00942408 0.0094328 0.00944145 0.00945001 0.00945847 0.00946684 0.00947509 0.0094832 0.00949117 0.00949901 0.00950668 0.00951417 0.0095215 0.00952864 0.00953557 0.0095423 0.00954882 0.00948767 0.00947386 0.00946042 0.00944734 0.00943463 0.00942219 0.00941 0.00939804 0.00938633 0.00937484 0.00936358 0.00935256 0.00934177 0.00933124 0.00932098 0.00931099 0.00930129 0.00929194 0.00928292 0.00927424 0.00926596 0.00925811 0.00925069 0.0092437 0.00923723 0.00923128 0.00922585 0.00922097 0.00921668 0.009213 0.00920992 0.00920747 0.00920567 0.00920452 0.00920403 0.00920419 0.009205 0.00920647 0.00920858 0.00921131 0.00921465 0.00921858 0.00922311 0.00922814 0.00923369 0.00923975 0.00924628 0.00925319 0.0092605 0.00926819 0.0092762 0.00928448 0.00929302 0.00930181 0.00931078 0.0093199 0.00932917 0.00933857 0.00934803 0.00935754 0.0093671 0.00937669 0.00938626 0.0093958 0.00940532 0.00941478 0.00942415 0.00943345 0.00944265 0.00945174 0.0094607 0.00946954 0.00947823 0.00948676 0.00949513 0.00950333 0.00951135 0.00951917 0.00952678 0.00953419 0.00947063 0.00945623 0.00944217 0.00942844 0.00941504 0.0094019 0.00938899 0.00937632 0.00936387 0.00935166 0.00933967 0.00932792 0.0093164 0.00930515 0.00929417 0.00928347 0.00927306 0.00926301 0.0092533 0.00924394 0.00923499 0.00922648 0.00921842 0.0092108 0.00920371 0.00919716 0.00919116 0.00918572 0.0091809 0.0091767 0.00917314 0.00917023 0.00916801 0.00916647 0.00916561 0.00916545 0.00916598 0.0091672 0.00916912 0.00917169 0.00917491 0.00917879 0.00918329 0.00918836 0.00919399 0.00920018 0.00920688 0.00921402 0.0092216 0.00922961 0.00923798 0.00924665 0.00925563 0.00926491 0.0092744 0.00928407 0.00929391 0.00930393 0.00931403 0.00932421 0.00933446 0.00934476 0.00935506 0.00936535 0.00937563 0.00938587 0.00939604 0.00940614 0.00941616 0.00942608 0.00943587 0.00944555 0.00945509 0.00946449 0.00947372 0.00948279 0.00949168 0.00950038 0.00950889 0.0095172 0.00945268 0.00943774 0.0094231 0.00940877 0.00939473 0.00938094 0.00936737 0.00935402 0.0093409 0.009328 0.00931532 0.00930288 0.00929067 0.00927873 0.00926706 0.00925567 0.00924458 0.00923385 0.00922347 0.00921344 0.00920383 0.00919468 0.00918597 0.00917772 0.00917002 0.00916286 0.00915627 0.00915025 0.00914487 0.00914014 0.00913607 0.00913266 0.00912997 0.009128 0.00912673 0.00912619 0.00912638 0.0091273 0.00912896 0.00913131 0.00913435 0.00913809 0.00914251 0.00914754 0.00915317 0.00915941 0.00916622 0.00917351 0.00918128 0.00918954 0.0091982 0.0092072 0.00921656 0.00922625 0.00923619 0.00924635 0.00925673 0.0092673 0.00927799 0.00928879 0.00929968 0.00931066 0.00932164 0.00933264 0.00934366 0.00935465 0.00936558 0.00937646 0.00938728 0.009398 0.00940861 0.00941911 0.00942949 0.00943973 0.00944982 0.00945975 0.00946952 0.0094791 0.00948849 0.00949769 0.00943384 0.0094184 0.00940324 0.00938834 0.00937372 0.00935932 0.00934513 0.00933116 0.00931739 0.00930385 0.00929052 0.00927742 0.00926455 0.00925196 0.00923963 0.00922758 0.00921583 0.00920444 0.00919341 0.00918273 0.00917247 0.00916267 0.00915333 0.00914445 0.00913612 0.00912836 0.00912116 0.00911454 0.00910859 0.0091033 0.00909868 0.00909474 0.00909155 0.00908909 0.00908737 0.0090864 0.0090862 0.00908676 0.00908808 0.00909014 0.00909294 0.00909647 0.00910073 0.00910564 0.00911121 0.00911743 0.00912426 0.00913162 0.00913952 0.00914794 0.00915682 0.00916609 0.00917575 0.00918579 0.00919613 0.00920671 0.00921756 0.00922864 0.00923986 0.00925122 0.00926271 0.00927431 0.00928595 0.00929762 0.00930933 0.00932103 0.0093327 0.00934432 0.00935591 0.00936741 0.00937881 0.00939012 0.00940132 0.00941239 0.00942331 0.00943409 0.00944472 0.00945517 0.00946544 0.00947553 0.00941413 0.00939823 0.00938258 0.00936717 0.009352 0.00933704 0.00932228 0.00930772 0.00929335 0.0092792 0.00926526 0.00925154 0.00923805 0.00922482 0.00921186 0.00919918 0.0091868 0.00917477 0.0091631 0.00915178 0.00914089 0.00913045 0.00912047 0.00911097 0.00910201 0.00909362 0.00908581 0.00907858 0.00907203 0.00906615 0.00906095 0.00905646 0.00905272 0.00904974 0.00904751 0.00904606 0.00904541 0.00904555 0.00904647 0.00904818 0.00905066 0.00905392 0.00905793 0.00906266 0.00906808 0.0090742 0.00908098 0.00908833 0.00909628 0.0091048 0.00911381 0.00912327 0.00913317 0.00914349 0.00915415 0.0091651 0.00917635 0.00918787 0.00919957 0.00921145 0.00922349 0.00923566 0.0092479 0.0092602 0.00927256 0.00928494 0.0092973 0.00930964 0.00932196 0.00933421 0.00934638 0.00935847 0.00937047 0.00938234 0.00939409 0.0094057 0.00941717 0.00942848 0.00943961 0.00945058 0.00939356 0.00937725 0.00936114 0.00934526 0.00932959 0.00931411 0.00929881 0.0092837 0.00926877 0.00925405 0.00923953 0.00922522 0.00921114 0.00919731 0.00918375 0.00917045 0.00915746 0.00914481 0.00913252 0.00912058 0.00910906 0.00909799 0.00908739 0.00907725 0.00906766 0.00905864 0.0090502 0.00904235 0.00903518 0.00902869 0.00902288 0.00901779 0.00901347 0.00900992 0.00900714 0.00900516 0.009004 0.00900365 0.00900412 0.00900541 0.0090075 0.00901041 0.00901411 0.00901856 0.00902376 0.0090297 0.00903634 0.00904362 0.00905152 0.00906006 0.00906914 0.00907871 0.00908876 0.0090993 0.00911021 0.00912145 0.00913304 0.00914495 0.00915707 0.00916939 0.00918192 0.00919462 0.00920741 0.0092203 0.00923327 0.00924629 0.0092593 0.00927232 0.00928534 0.00929832 0.00931122 0.00932406 0.00933683 0.00934949 0.00936203 0.00937445 0.00938675 0.00939889 0.00941087 0.0094227 0.00937216 0.00935546 0.00933894 0.00932262 0.00930648 0.00929052 0.00927472 0.0092591 0.00924365 0.00922839 0.00921333 0.00919846 0.00918381 0.00916941 0.00915527 0.00914139 0.0091278 0.00911456 0.00910166 0.0090891 0.00907697 0.00906528 0.00905405 0.00904328 0.00903305 0.0090234 0.00901432 0.00900583 0.00899802 0.00899089 0.00898445 0.00897872 0.00897378 0.00896962 0.00896624 0.00896368 0.00896195 0.00896106 0.00896101 0.00896181 0.00896344 0.00896592 0.00896923 0.00897333 0.00897822 0.0089839 0.00899033 0.00899743 0.00900522 0.00901369 0.00902275 0.00903235 0.00904249 0.00905315 0.00906424 0.00907571 0.00908757 0.00909979 0.00911226 0.00912498 0.00913795 0.00915112 0.00916441 0.00917782 0.00919136 0.00920497 0.0092186 0.00923226 0.00924595 0.0092596 0.00927321 0.00928677 0.00930028 0.0093137 0.00932701 0.00934022 0.00935331 0.00936627 0.00937908 0.00939175 0.00934993 0.00933287 0.00931598 0.00929925 0.00928268 0.00926627 0.00925002 0.00923392 0.00921797 0.00920221 0.00918664 0.00917124 0.00915606 0.00914111 0.00912642 0.00911197 0.00909781 0.00908398 0.00907049 0.00905734 0.0090446 0.0090323 0.00902044 0.00900904 0.00899818 0.00898788 0.00897814 0.008969 0.00896053 0.00895274 0.00894563 0.00893925 0.00893365 0.00892883 0.0089248 0.0089216 0.00891925 0.00891776 0.00891713 0.00891736 0.00891846 0.00892044 0.00892327 0.00892695 0.00893145 0.00893677 0.0089429 0.00894975 0.00895733 0.00896564 0.00897459 0.00898414 0.00899427 0.00900499 0.00901617 0.00902779 0.00903985 0.00905231 0.00906508 0.00907813 0.00909146 0.00910504 0.00911878 0.00913267 0.00914672 0.00916087 0.00917508 0.00918934 0.00920364 0.00921795 0.00923222 0.00924647 0.00926069 0.00927483 0.00928888 0.00930285 0.00931672 0.00933047 0.00934408 0.00935757 0.00932689 0.00930951 0.00929227 0.00927516 0.0092582 0.00924138 0.00922469 0.00920815 0.00919174 0.00917551 0.00915945 0.00914356 0.00912786 0.0091124 0.00909717 0.00908218 0.00906746 0.00905307 0.00903901 0.00902527 0.00901193 0.00899902 0.00898654 0.00897451 0.008963 0.00895205 0.00894166 0.00893184 0.00892269 0.00891422 0.00890642 0.00889934 0.00889304 0.00888753 0.00888281 0.00887892 0.00887589 0.00887374 0.00887245 0.00887205 0.00887254 0.00887394 0.00887622 0.00887937 0.0088834 0.00888829 0.00889401 0.00890051 0.0089078 0.00891586 0.00892461 0.00893402 0.00894406 0.00895474 0.00896594 0.00897762 0.0089898 0.00900243 0.00901541 0.00902872 0.00904236 0.00905628 0.00907041 0.00908472 0.00909924 0.00911388 0.00912861 0.00914342 0.00915831 0.00917322 0.00918812 0.00920303 0.00921792 0.00923275 0.00924751 0.00926221 0.00927683 0.00929133 0.00930573 0.00932 0.00930305 0.00928537 0.0092678 0.00925036 0.00923303 0.00921583 0.00919874 0.00918178 0.00916495 0.00914827 0.00913175 0.00911539 0.00909921 0.00908325 0.00906752 0.009052 0.00903675 0.00902182 0.00900719 0.00899287 0.00897894 0.00896543 0.00895234 0.00893967 0.00892752 0.00891592 0.00890485 0.00889434 0.0088845 0.00887532 0.0088668 0.00885899 0.00885196 0.00884571 0.00884025 0.00883562 0.00883186 0.00882897 0.00882696 0.00882586 0.00882567 0.0088264 0.00882805 0.0088306 0.00883405 0.00883841 0.00884364 0.0088497 0.00885658 0.0088643 0.00887276 0.00888192 0.00889178 0.00890233 0.00891345 0.00892512 0.00893732 0.00895004 0.00896316 0.00897665 0.00899053 0.00900474 0.00901918 0.00903386 0.00904878 0.00906386 0.00907906 0.00909438 0.0091098 0.00912528 0.00914077 0.00915629 0.00917181 0.0091873 0.00920275 0.00921814 0.00923347 0.00924871 0.00926385 0.00927889 0.0092784 0.00926045 0.0092426 0.00922484 0.00920718 0.00918962 0.00917217 0.00915482 0.00913759 0.00912049 0.00910354 0.00908674 0.0090701 0.00905367 0.00903744 0.00902143 0.00900566 0.00899019 0.00897502 0.00896014 0.00894563 0.00893152 0.00891781 0.00890451 0.00889172 0.00887945 0.0088677 0.00885649 0.00884593 0.00883602 0.00882675 0.00881819 0.00881039 0.00880337 0.00879711 0.00879169 0.00878714 0.00878346 0.00878066 0.00877878 0.00877783 0.00877782 0.00877874 0.00878059 0.00878338 0.0087871 0.00879174 0.00879726 0.00880364 0.0088109 0.00881897 0.00882778 0.00883736 0.00884767 0.00885862 0.00887017 0.00888232 0.00889504 0.00890821 0.00892181 0.00893585 0.00895026 0.00896496 0.00897994 0.0089952 0.00901066 0.00902628 0.00904205 0.00905797 0.00907396 0.00908999 0.00910608 0.00912221 0.00913832 0.00915441 0.00917047 0.00918648 0.00920242 0.00921828 0.00923406 0.00925297 0.00923477 0.00921665 0.00919861 0.00918064 0.00916275 0.00914496 0.00912726 0.00910965 0.00909216 0.00907481 0.00905759 0.00904051 0.00902363 0.00900693 0.00899044 0.00897417 0.00895818 0.00894247 0.00892705 0.00891196 0.00889726 0.00888295 0.00886902 0.00885558 0.00884263 0.00883019 0.00881827 0.00880698 0.00879632 0.00878628 0.00877693 0.00876833 0.00876048 0.00875339 0.00874713 0.00874173 0.0087372 0.00873354 0.00873081 0.00872902 0.00872817 0.00872827 0.00872934 0.00873136 0.00873435 0.00873829 0.00874315 0.00874892 0.00875562 0.00876317 0.00877153 0.00878071 0.00879068 0.00880136 0.00881269 0.00882468 0.0088373 0.00885043 0.00886405 0.00887816 0.0088927 0.00890758 0.00892279 0.00893832 0.00895411 0.00897009 0.00898626 0.00900261 0.00901907 0.00903561 0.00905223 0.00906892 0.00908561 0.0091023 0.00911899 0.00913566 0.00915226 0.00916881 0.00918529 0.00922675 0.00920833 0.00918997 0.00917166 0.00915341 0.00913522 0.00911711 0.00909908 0.00908112 0.00906327 0.00904554 0.00902792 0.00901043 0.00899312 0.00897598 0.00895901 0.00894227 0.00892578 0.00890955 0.00889358 0.00887793 0.00886265 0.00884773 0.00883317 0.00881908 0.00880546 0.00879231 0.00877968 0.00876764 0.0087562 0.00874537 0.0087352 0.00872576 0.00871705 0.00870909 0.00870193 0.00869563 0.00869018 0.00868559 0.00868194 0.00867923 0.00867746 0.00867665 0.00867682 0.00867798 0.00868012 0.00868324 0.00868733 0.00869237 0.00869838 0.0087053 0.00871309 0.00872174 0.00873126 0.00874154 0.00875253 0.00876426 0.00877668 0.00878966 0.0088032 0.0088173 0.00883189 0.00884686 0.00886222 0.00887796 0.008894 0.00891028 0.00892678 0.00894352 0.0089604 0.00897739 0.0089945 0.0090117 0.00902894 0.0090462 0.00906348 0.00908077 0.00909801 0.00911521 0.00913237 0.00919974 0.00918112 0.00916254 0.00914399 0.00912548 0.00910703 0.00908863 0.00907028 0.009052 0.00903381 0.00901572 0.00899773 0.00897985 0.00896212 0.00894456 0.00892715 0.00890993 0.00889296 0.00887622 0.00885972 0.00884352 0.00882766 0.00881214 0.00879696 0.00878221 0.00876791 0.00875406 0.00874069 0.00872789 0.00871566 0.00870401 0.00869299 0.00868268 0.00867308 0.00866419 0.00865609 0.00864883 0.0086424 0.00863682 0.00863216 0.00862845 0.00862567 0.00862385 0.00862303 0.00862321 0.00862439 0.00862658 0.00862977 0.00863396 0.00863915 0.0086453 0.00865237 0.00866038 0.0086693 0.00867905 0.00868959 0.00870092 0.00871302 0.00872575 0.0087391 0.00875308 0.00876761 0.00878259 0.00879802 0.00881388 0.0088301 0.00884661 0.00886339 0.00888045 0.0088977 0.00891509 0.00893264 0.00895032 0.00896806 0.00898585 0.00900369 0.00902157 0.00903942 0.00905724 0.00907505 0.00917195 0.00915315 0.00913437 0.00911561 0.00909686 0.00907816 0.00905949 0.00904086 0.00902228 0.00900377 0.00898534 0.008967 0.00894875 0.00893063 0.00891266 0.00889482 0.00887716 0.00885971 0.00884247 0.00882546 0.00880872 0.00879229 0.00877616 0.00876036 0.00874496 0.00872998 0.00871542 0.0087013 0.00868772 0.00867469 0.0086622 0.00865031 0.0086391 0.00862857 0.00861871 0.00860962 0.00860135 0.00859388 0.00858723 0.0085815 0.00857669 0.00857282 0.00856989 0.00856797 0.00856706 0.00856716 0.00856828 0.00857044 0.00857364 0.00857787 0.0085831 0.00858933 0.00859653 0.00860471 0.00861379 0.00862373 0.00863453 0.00864617 0.00865851 0.00867156 0.00868529 0.00869967 0.00871455 0.00872994 0.00874585 0.00876217 0.00877882 0.00879581 0.00881314 0.00883069 0.00884843 0.00886637 0.00888448 0.00890269 0.00892097 0.00893934 0.00895776 0.00897619 0.00899462 0.00901304 0.00914337 0.00912441 0.00910545 0.0090865 0.00906754 0.00904861 0.00902969 0.0090108 0.00899194 0.00897314 0.0089544 0.00893572 0.00891712 0.00889863 0.00888026 0.00886202 0.00884392 0.00882601 0.0088083 0.00879077 0.0087735 0.00875651 0.0087398 0.00872337 0.00870732 0.00869166 0.00867638 0.00866151 0.00864715 0.00863329 0.00861995 0.00860716 0.00859502 0.00858352 0.00857266 0.00856253 0.00855319 0.00854462 0.00853685 0.00852996 0.00852398 0.00851891 0.00851477 0.00851164 0.00850952 0.00850842 0.00850835 0.00850933 0.00851139 0.0085145 0.00851867 0.00852387 0.00853011 0.00853739 0.00854563 0.0085548 0.00856491 0.00857594 0.00858776 0.00860035 0.00861371 0.0086278 0.00864246 0.00865772 0.00867356 0.00868988 0.0087066 0.00872373 0.00874124 0.00875904 0.00877707 0.00879535 0.00881385 0.00883247 0.00885122 0.00887007 0.00888902 0.00890799 0.00892699 0.00894601 0.009114 0.0090949 0.00907579 0.00905666 0.00903751 0.00901837 0.00899923 0.0089801 0.00896098 0.0089419 0.00892287 0.00890388 0.00888494 0.00886611 0.00884737 0.00882872 0.00881021 0.00879186 0.00877367 0.00875566 0.00873786 0.00872032 0.00870302 0.00868599 0.00866928 0.00865293 0.00863694 0.00862131 0.00860615 0.00859146 0.00857724 0.00856354 0.00855044 0.00853795 0.00852605 0.00851484 0.00850438 0.00849465 0.00848568 0.00847757 0.00847033 0.00846398 0.00845853 0.00845408 0.00845063 0.00844819 0.00844678 0.00844644 0.00844719 0.00844902 0.00845194 0.00845595 0.00846104 0.00846723 0.00847444 0.00848267 0.00849191 0.00850214 0.00851325 0.00852523 0.00853807 0.00855171 0.00856602 0.00858101 0.00859667 0.00861289 0.00862958 0.00864674 0.00866437 0.00868234 0.0087006 0.00871916 0.00873799 0.008757 0.00877616 0.00879548 0.00881492 0.00883441 0.00885396 0.00887356 0.00908384 0.00906462 0.00904537 0.00902608 0.00900676 0.00898743 0.00896809 0.00894874 0.00892938 0.00891005 0.00889074 0.00887146 0.00885221 0.00883304 0.00881394 0.00879492 0.00877601 0.00875723 0.00873859 0.00872009 0.00870179 0.0086837 0.00866583 0.00864818 0.00863084 0.00861381 0.00859709 0.00858071 0.00856475 0.00854921 0.0085341 0.00851947 0.00850539 0.00849187 0.0084789 0.00846657 0.00845494 0.00844401 0.00843378 0.00842437 0.0084158 0.00840807 0.00840122 0.00839533 0.00839043 0.00838651 0.00838361 0.0083818 0.00838107 0.00838144 0.00838292 0.00838553 0.00838927 0.00839415 0.00840012 0.00840719 0.00841535 0.00842457 0.00843477 0.00844594 0.00845806 0.00847108 0.00848487 0.00849943 0.00851476 0.00853075 0.00854729 0.00856439 0.00858203 0.00860009 0.00861851 0.00863729 0.00865641 0.00867575 0.00869529 0.00871504 0.00873494 0.00875494 0.00877501 0.00879517 0.00905289 0.00903356 0.00901418 0.00899476 0.00897529 0.00895579 0.00893626 0.00891671 0.00889714 0.00887757 0.008858 0.00883845 0.00881891 0.00879942 0.00877999 0.00876061 0.0087413 0.00872211 0.00870303 0.00868407 0.00866526 0.00864664 0.00862821 0.00860996 0.00859198 0.00857427 0.00855683 0.00853969 0.00852293 0.00850654 0.00849053 0.00847496 0.00845988 0.00844531 0.00843124 0.00841776 0.00840492 0.00839273 0.00838119 0.00837041 0.00836043 0.00835125 0.00834288 0.00833545 0.00832897 0.00832344 0.0083189 0.00831545 0.00831307 0.00831178 0.00831161 0.00831262 0.00831478 0.00831811 0.0083226 0.00832826 0.00833508 0.00834305 0.0083521 0.0083622 0.00837338 0.00838556 0.00839862 0.00841257 0.0084274 0.00844299 0.00845923 0.00847614 0.00849369 0.00851174 0.00853023 0.00854916 0.00856851 0.00858813 0.00860802 0.00862815 0.00864851 0.00866899 0.00868959 0.0087103 0.00902113 0.00900171 0.00898223 0.00896268 0.00894308 0.00892343 0.00890374 0.008884 0.00886423 0.00884444 0.00882464 0.00880483 0.00878502 0.00876523 0.00874548 0.00872575 0.00870608 0.0086865 0.00866699 0.00864757 0.00862828 0.00860914 0.00859015 0.00857132 0.0085527 0.00853432 0.00851617 0.00849828 0.00848071 0.00846347 0.00844656 0.00843002 0.00841394 0.0083983 0.00838311 0.00836845 0.00835437 0.00834087 0.00832797 0.00831577 0.00830431 0.00829358 0.00828362 0.00827454 0.00826636 0.00825908 0.00825276 0.00824749 0.00824328 0.00824012 0.00823809 0.00823725 0.00823758 0.00823909 0.00824183 0.00824579 0.00825099 0.0082574 0.008265 0.00827377 0.00828372 0.00829478 0.00830686 0.00831995 0.00833406 0.00834904 0.00836481 0.00838136 0.00839869 0.00841661 0.00843507 0.00845406 0.00847357 0.00849342 0.0085136 0.0085341 0.00855489 0.00857584 0.00859695 0.00861823 0.00898855 0.00896906 0.00894949 0.00892985 0.00891013 0.00889034 0.0088705 0.0088506 0.00883065 0.00881066 0.00879065 0.0087706 0.00875053 0.00873046 0.00871041 0.00869036 0.00867033 0.00865036 0.00863045 0.00861059 0.00859083 0.00857119 0.00855165 0.00853224 0.00851301 0.00849397 0.00847511 0.00845647 0.0084381 0.00842 0.00840219 0.0083847 0.0083676 0.00835088 0.00833455 0.00831869 0.00830334 0.00828851 0.0082742 0.00826053 0.00824753 0.00823519 0.00822354 0.00821272 0.00820273 0.00819357 0.00818531 0.00817806 0.00817182 0.0081666 0.00816248 0.00815953 0.00815776 0.00815717 0.00815783 0.00815978 0.008163 0.00816751 0.0081733 0.00818038 0.00818874 0.00819834 0.00820911 0.00822104 0.00823413 0.00824825 0.00826331 0.00827928 0.00829617 0.0083138 0.00833209 0.00835105 0.00837064 0.00839067 0.0084111 0.00843194 0.00845313 0.00847454 0.00849618 0.00851803 0.00895515 0.0089356 0.00891596 0.00889623 0.00887641 0.00885651 0.00883654 0.0088165 0.00879638 0.00877621 0.008756 0.00873573 0.00871542 0.0086951 0.00867475 0.00865439 0.00863404 0.00861371 0.0085934 0.00857312 0.00855291 0.00853277 0.00851271 0.00849274 0.0084729 0.00845321 0.00843366 0.00841428 0.00839512 0.00837618 0.00835747 0.00833902 0.0083209 0.0083031 0.00828563 0.00826855 0.00825192 0.00823573 0.00821999 0.00820481 0.00819021 0.0081762 0.0081628 0.00815015 0.00813824 0.00812709 0.00811676 0.00810738 0.00809893 0.00809143 0.00808498 0.00807968 0.00807551 0.00807249 0.00807074 0.0080703 0.00807116 0.00807334 0.0080769 0.00808184 0.00808818 0.00809588 0.0081049 0.00811524 0.00812691 0.00813979 0.00815379 0.00816892 0.00818516 0.00820229 0.00822022 0.00823896 0.00825847 0.00827856 0.00829919 0.00832036 0.00834199 0.00836391 0.00838609 0.00840855 0.00892092 0.00890132 0.00888162 0.00886182 0.00884192 0.00882192 0.00880184 0.00878167 0.00876141 0.00874107 0.00872068 0.00870021 0.00867968 0.00865911 0.0086385 0.00861786 0.00859718 0.00857651 0.00855583 0.00853515 0.0085145 0.00849389 0.00847333 0.00845281 0.00843238 0.00841206 0.00839184 0.00837173 0.00835179 0.00833202 0.00831242 0.00829303 0.0082739 0.00825502 0.00823641 0.00821812 0.00820019 0.00818263 0.00816545 0.00814873 0.00813251 0.00811678 0.00810159 0.00808703 0.00807314 0.0080599 0.00804738 0.00803572 0.0080249 0.00801493 0.00800595 0.00799803 0.00799118 0.00798541 0.00798088 0.00797764 0.00797569 0.00797506 0.00797588 0.00797816 0.0079819 0.00798711 0.00799383 0.00800204 0.00801175 0.00802287 0.00803533 0.00804915 0.00806429 0.00808056 0.00809787 0.00811623 0.00813559 0.00815565 0.00817637 0.00819775 0.00821972 0.0082421 0.0082649 0.00828811 0.00888583 0.00886621 0.00884647 0.00882661 0.00880664 0.00878656 0.00876638 0.00874609 0.00872571 0.00870523 0.00868467 0.00866402 0.00864329 0.0086225 0.00860165 0.00858073 0.00855976 0.00853876 0.00851773 0.00849667 0.00847561 0.00845455 0.00843349 0.00841245 0.00839146 0.00837053 0.00834965 0.00832884 0.00830814 0.00828756 0.00826709 0.00824678 0.00822665 0.00820671 0.00818697 0.00816748 0.00814827 0.00812934 0.0081107 0.00809245 0.008