<?xml version="1.0"?> 
<VTKFile type="StructuredGrid" version="0.1"> 
<StructuredGrid WholeExtent="0 19 0 19 0 0"> 
<Piece Extent="0 19 0 19 0 0"> 
<PointData Vectors="u">
<DataArray type="Float32" Name="u" format="ascii" NumberOfComponents="3"> 
0 -2.27574 0 0 8.67015 0 0 9.71057 0 0 1.90687 0 0 -10.595 0 0 -21.4489 0 0 -27.028 0 0 -29.082 0 0 -29.4445 0 0 -26.8321 0 0 -19.1259 0 0 -10.9362 0 0 -13.5927 0 0 -30.2544 0 0 -40.6994 0 0 -24.1994 0 0 9.52929 0 0 35.2509 0 0 34.6611 0 0 -0.746259 0 2.83636 14.6981 0 6.48377 16.2249 0 1.23066 23.5052 0 -9.65277 22.1276 0 -13.8705 10.7749 0 -10.5271 -2.45614 0 -5.8257 -11.924 0 -2.30381 -17.1611 0 0.0382361 -18.6913 0 1.19992 -19.3585 0 1.03162 -22.6776 0 -1.36442 -28.2928 0 -6.03269 -31.9773 0 -4.77455 -30.2108 0 7.56046 -21.889 0 23.2136 -6.979 0 23.2189 8.83353 0 7.96728 17.0715 0 -9.45514 16.1907 0 -25.568 14.3002 0 -4.89239 11.0645 0 13.6377 13.1874 0 7.9357 21.4442 0 -14.3802 24.4833 0 -24.6654 20.1344 0 -20.6552 12.8356 0 -12.8665 6.13442 0 -5.60157 1.56544 0 -0.646752 -0.0760478 0 -0.845779 -0.960927 0 -5.10799 -4.15088 0 -6.67063 -8.50447 0 -4.38254 -8.67945 0 3.63252 -1.93541 0 18.5532 6.77491 0 32.9184 11.7117 0 28.4898 11.751 0 6.83571 8.27428 0 -7.00449 8.51575 0 -6.37141 27.8031 0 -0.655639 -6.57138 0 20.5802 2.76208 0 14.0351 8.00202 0 -11.8116 13.2969 0 -25.0781 18.9927 0 -23.165 22.7065 0 -16.0415 23.3365 0 -7.78621 22.3867 0 -1.0989 21.6466 0 -0.277516 22.823 0 -4.05616 27.4798 0 -4.50892 34.5752 0 -0.3261 40.4625 0 7.61171 42.0845 0 18.7513 38.3263 0 27.6621 28.8177 0 21.0692 16.777 0 1.62772 7.35492 0 3.3717 9.55107 0 35.3527 37.6842 0 15.776 -13.3748 0 26.4561 -3.00139 0 17.5648 0.00239326 0 -4.75957 4.82255 0 -17.4373 13.0235 0 -18.5475 20.6901 0 -14.4434 25.3534 0 -7.72432 27.5898 0 -0.565139 28.5982 0 3.57186 31.1715 0 4.8725 38.4704 0 4.71809 48.8569 0 3.37975 55.8958 0 4.046 54.8976 0 8.7199 46.5726 0 13.3467 32.8525 0 8.01494 18.2541 0 -3.99218 8.65775 0 16.3233 11.4569 0 79.3332 36.1289 0 28.6256 -7.46606 0 30.4318 -3.09791 0 19.5224 -1.16579 0 0.256659 0.539387 0 -10.9749 3.13813 0 -12.8243 6.96216 0 -10.1648 11.8115 0 -4.9898 16.4874 0 1.55187 19.9686 0 7.63159 22.9432 0 12.5361 26.6515 0 12.1266 30.8133 0 5.79901 33.6273 0 0.238337 33.5867 0 -0.355844 30.1803 0 1.13161 23.3757 0 -2.3512 15.82 0 -7.35104 11.5179 0 25.5469 13.457 0 106.825 23.1981 0 29.7112 0.196332 0 31.9207 -0.79483 0 20.3914 -0.38353 0 0.116258 -1.25227 0 -10.131 -2.56889 0 -8.9223 -0.986622 0 -4.38536 4.67305 0 0.154908 11.269 0 4.70132 15.5872 0 9.25838 16.8863 0 13.1696 15.376 0 12.4961 12.5628 0 6.64712 11.2463 0 0.755416 12.8721 0 -1.95455 14.9897 0 -2.95936 14.89 0 -5.86845 13.4213 0 -7.37011 13.2205 0 28.8381 14.9831 0 112.411 16.6898 0 26.2905 5.12932 0 30.8149 2.57121 0 19.5294 0.352413 0 -1.54094 -1.24774 0 -9.74224 -0.78608 0 -3.51962 3.99894 0 3.61681 12.9224 0 6.14016 21.0123 0 6.10885 23.5662 0 6.79955 20.6704 0 7.98901 14.1974 0 8.08567 7.24497 0 6.82672 4.13027 0 4.40186 6.95778 0 0.9303 11.5716 0 -3.10306 13.3285 0 -6.51284 12.6724 0 -6.02486 12.655 0 31.9953 15.803 0 116.493 23.885 0 25.735 8.95366 0 27.2154 6.50734 0 16.4907 1.84012 0 -0.998777 0.733957 0 -4.79769 5.13367 0 6.23309 14.2058 0 14.0679 25.4887 0 11.3327 33.4773 0 3.55381 33.3963 0 -0.471529 26.7738 0 -0.770945 17.4181 0 1.81324 9.10239 0 7.06619 5.5583 0 9.18072 8.27512 0 4.50873 12.5513 0 -3.85063 13.2885 0 -8.32163 11.1637 0 -5.19097 9.87593 0 40.7283 15.3524 0 138.795 36.5776 0 25.7205 14.2493 0 22.1206 10.229 0 12.7313 5.35003 0 1.36854 4.98089 0 2.37965 9.85313 0 16.2335 17.3561 0 23.0231 24.7487 0 14.6048 29.1805 0 -0.459095 28.3486 0 -8.53845 23.2232 0 -9.60903 15.9687 0 -4.5739 8.97046 0 6.27962 4.83187 0 12.28 4.77636 0 6.72342 6.189 0 -5.09481 6.16983 0 -10.2304 5.05931 0 -4.1121 4.97017 0 54.8594 12.7329 0 177.748 41.705 0 21.0584 18.5268 0 16.972 13.3193 0 10.333 10.4838 0 3.73893 10.9398 0 6.95578 13.2804 0 20.1037 14.4372 0 25.2552 13.0998 0 15.0761 11.4451 0 -1.85259 11.4983 0 -11.8713 12.0621 0 -14.7096 10.8468 0 -9.79594 7.26968 0 2.80632 2.45653 0 10.7317 -2.32363 0 6.2123 -5.61132 0 -5.11025 -6.11326 0 -9.44486 -4.26689 0 -1.15627 -1.25235 0 72.0656 8.46527 0 224.133 39.7487 0 21.3884 6.65037 0 15.9253 13.3373 0 9.93066 14.7538 0 5.0389 15.2688 0 7.39597 15.2749 0 16.9959 12.3184 0 20.7625 6.28224 0 13.3464 1.70979 0 0.283729 2.58241 0 -9.61293 6.47155 0 -15.565 8.73694 0 -13.5789 7.22807 0 -3.13029 2.28852 0 4.76316 -4.80892 0 3.18011 -10.5237 0 -3.73501 -11.414 0 -5.85143 -8.27706 0 3.53923 -3.93868 0 89.6926 5.74287 0 269.964 34.6021 0 51.1639 -23.4517 0 25.8429 10.0098 0 10.7098 17.7745 0 4.94518 17.4185 0 5.46772 15.8094 0 11.5936 12.11 0 14.7688 6.82621 0 11.4942 3.4037 0 3.69144 4.73552 0 -5.58032 8.51599 0 -14.9752 10.6557 0 -16.6531 9.31686 0 -9.42182 4.91713 0 -2.2034 -1.37234 0 -0.60276 -6.56913 0 -2.37253 -7.7815 0 -2.01917 -5.60658 0 8.06708 -2.32131 0 104.758 5.06359 0 308.498 26.8653 0 121.324 -36.6031 0 48.0105 13.7549 0 10.5003 21.8181 0 2.83179 17.9668 0 2.59036 14.5858 0 7.347 11.0977 0 10.8759 7.47072 0 10.6303 5.2894 0 6.25346 5.86772 0 -2.82214 7.85628 0 -14.8227 8.9979 0 -19.0619 8.32796 0 -13.8591 6.17599 0 -7.04641 3.13586 0 -3.54395 0.376359 0 -2.17918 -0.959303 0 -0.0858479 -0.807284 0 10.8645 0.37626 0 114.208 3.75053 0 332.163 12.7225 0 203.685 -10.7061 0 67.9821 31.1174 0 3.56092 28.3121 0 -2.85354 17.2771 0 -1.17543 11.417 0 3.63445 7.57649 0 7.57648 3.65433 0 9.01447 0.307509 0 6.624 -1.61595 0 -1.70322 -2.00268 0 -14.0588 -1.01388 0 -18.8302 0.989655 0 -14.1813 3.44777 0 -7.85927 5.66876 0 -4.73097 6.62143 0 -3.44086 5.4445 0 -0.675438 3.26132 0 11.5334 2.12905 0 114.835 0.122047 0 330.944 -10.2234 0 264.748 31.4463 0 70.9012 47.0422 0 -14.5043 31.0924 0 -13.0531 14.6182 0 -5.90292 7.08966 0 -0.804285 2.46593 0 2.67909 -3.19904 0 4.72568 -9.11673 0 3.89433 -13.9744 0 -2.10909 -16.5752 0 -11.6088 -15.8111 0 -14.3741 -11.6595 0 -8.80823 -5.18354 0 -3.38138 2.00847 0 -3.41446 6.93253 0 -5.98129 6.85349 0 -3.92898 3.25235 0 9.6761 -0.406581 0 103.856 -9.13677 0 296.968 -39.7401 0 283.029 34.1379 0 61.7864 24.7284 0 -31.0572 15.0919 0 -22.0195 8.20287 0 -10.8061 3.52653 0 -6.71746 -1.9864 0 -4.34693 -9.60877 0 -1.48271 -17.055 0 -0.189327 -22.063 0 -3.75315 -24.8963 0 -10.5437 -26.6705 0 -10.5257 -27.0807 0 -2.16364 -24.4015 0 3.8363 -18.1554 0 0.748576 -11.4835 0 -6.89941 -7.91913 0 -8.04066 -9.01549 0 3.16444 -15.4039 0 82.4533 -32.129 0 244.65 -70.3705 0 243.516 0.932886 0 55.4406 -32.4707 0 -25.2466 -19.7943 0 -20.7557 -4.53879 0 -14.5965 -2.10387 0 -14.4356 -7.63974 0 -13.0357 -16.1398 0 -7.43588 -23.1615 0 -2.55163 -25.4725 0 -6.20766 -26.5315 0 -15.7981 -31.9576 0 -15.0855 -41.3639 0 -1.56225 -48.3568 0 9.2971 -48.3919 0 7.77125 -42.7545 0 -2.05718 -34.1977 0 -10.2085 -29.5591 0 -10.7237 -37.6564 0 53.8971 -61.7613 0 198.947 -97.4247 0 144.193 -4.49011 0 46.4071 -72.063 0 -1.42186 -67.5067 0 -9.06465 -49.6007 0 -13.2589 -40.2882 0 -17.3081 -34.9798 0 -16.5089 -30.3456 0 -8.93712 -26.6399 0 -1.81996 -24.272 0 -6.66197 -22.1501 0 -20.0599 -18.7416 0 -20.7093 -14.874 0 -5.27714 -13.7328 0 9.24978 -16.6387 0 12.2003 -19.4755 0 5.17647 -17.8368 0 -7.90589 -12.8928 0 -21.2521 -8.90417 0 23.8001 -20.0999 0 142.853 -74.5078 0 1 34.8046 0 1 -80.0878 0 1 -126.434 0 1 -133.896 0 1 -119.135 0 1 -89.455 0 1 -54.2349 0 1 -27.2786 0 1 -18.48 0 1 -11.9299 0 1 16.4167 0 1 62.9301 0 1 96.3098 0 1 96.2697 0 1 76.2806 0 1 55.5639 0 1 53.0804 0 1 86.3476 0 1 113.582 0 1 10.7191 0 </DataArray> 
</PointData> 
<Points> 
<DataArray type="Float32" NumberOfComponents="3"> 
0 0 0 0.0526316 0 0 0.105263 0 0 0.157895 0 0 0.210526 0 0 0.263158 0 0 0.315789 0 0 0.368421 0 0 0.421053 0 0 0.473684 0 0 0.526316 0 0 0.578947 0 0 0.631579 0 0 0.684211 0 0 0.736842 0 0 0.789474 0 0 0.842105 0 0 0.894737 0 0 0.947368 0 0 1 0 0 0 0.0526316 0 0.0526316 0.0526316 0 0.105263 0.0526316 0 0.157895 0.0526316 0 0.210526 0.0526316 0 0.263158 0.0526316 0 0.315789 0.0526316 0 0.368421 0.0526316 0 0.421053 0.0526316 0 0.473684 0.0526316 0 0.526316 0.0526316 0 0.578947 0.0526316 0 0.631579 0.0526316 0 0.684211 0.0526316 0 0.736842 0.0526316 0 0.789474 0.0526316 0 0.842105 0.0526316 0 0.894737 0.0526316 0 0.947368 0.0526316 0 1 0.0526316 0 0 0.105263 0 0.0526316 0.105263 0 0.105263 0.105263 0 0.157895 0.105263 0 0.210526 0.105263 0 0.263158 0.105263 0 0.315789 0.105263 0 0.368421 0.105263 0 0.421053 0.105263 0 0.473684 0.105263 0 0.526316 0.105263 0 0.578947 0.105263 0 0.631579 0.105263 0 0.684211 0.105263 0 0.736842 0.105263 0 0.789474 0.105263 0 0.842105 0.105263 0 0.894737 0.105263 0 0.947368 0.105263 0 1 0.105263 0 0 0.157895 0 0.0526316 0.157895 0 0.105263 0.157895 0 0.157895 0.157895 0 0.210526 0.157895 0 0.263158 0.157895 0 0.315789 0.157895 0 0.368421 0.157895 0 0.421053 0.157895 0 0.473684 0.157895 0 0.526316 0.157895 0 0.578947 0.157895 0 0.631579 0.157895 0 0.684211 0.157895 0 0.736842 0.157895 0 0.789474 0.157895 0 0.842105 0.157895 0 0.894737 0.157895 0 0.947368 0.157895 0 1 0.157895 0 0 0.210526 0 0.0526316 0.210526 0 0.105263 0.210526 0 0.157895 0.210526 0 0.210526 0.210526 0 0.263158 0.210526 0 0.315789 0.210526 0 0.368421 0.210526 0 0.421053 0.210526 0 0.473684 0.210526 0 0.526316 0.210526 0 0.578947 0.210526 0 0.631579 0.210526 0 0.684211 0.210526 0 0.736842 0.210526 0 0.789474 0.210526 0 0.842105 0.210526 0 0.894737 0.210526 0 0.947368 0.210526 0 1 0.210526 0 0 0.263158 0 0.0526316 0.263158 0 0.105263 0.263158 0 0.157895 0.263158 0 0.210526 0.263158 0 0.263158 0.263158 0 0.315789 0.263158 0 0.368421 0.263158 0 0.421053 0.263158 0 0.473684 0.263158 0 0.526316 0.263158 0 0.578947 0.263158 0 0.631579 0.263158 0 0.684211 0.263158 0 0.736842 0.263158 0 0.789474 0.263158 0 0.842105 0.263158 0 0.894737 0.263158 0 0.947368 0.263158 0 1 0.263158 0 0 0.315789 0 0.0526316 0.315789 0 0.105263 0.315789 0 0.157895 0.315789 0 0.210526 0.315789 0 0.263158 0.315789 0 0.315789 0.315789 0 0.368421 0.315789 0 0.421053 0.315789 0 0.473684 0.315789 0 0.526316 0.315789 0 0.578947 0.315789 0 0.631579 0.315789 0 0.684211 0.315789 0 0.736842 0.315789 0 0.789474 0.315789 0 0.842105 0.315789 0 0.894737 0.315789 0 0.947368 0.315789 0 1 0.315789 0 0 0.368421 0 0.0526316 0.368421 0 0.105263 0.368421 0 0.157895 0.368421 0 0.210526 0.368421 0 0.263158 0.368421 0 0.315789 0.368421 0 0.368421 0.368421 0 0.421053 0.368421 0 0.473684 0.368421 0 0.526316 0.368421 0 0.578947 0.368421 0 0.631579 0.368421 0 0.684211 0.368421 0 0.736842 0.368421 0 0.789474 0.368421 0 0.842105 0.368421 0 0.894737 0.368421 0 0.947368 0.368421 0 1 0.368421 0 0 0.421053 0 0.0526316 0.421053 0 0.105263 0.421053 0 0.157895 0.421053 0 0.210526 0.421053 0 0.263158 0.421053 0 0.315789 0.421053 0 0.368421 0.421053 0 0.421053 0.421053 0 0.473684 0.421053 0 0.526316 0.421053 0 0.578947 0.421053 0 0.631579 0.421053 0 0.684211 0.421053 0 0.736842 0.421053 0 0.789474 0.421053 0 0.842105 0.421053 0 0.894737 0.421053 0 0.947368 0.421053 0 1 0.421053 0 0 0.473684 0 0.0526316 0.473684 0 0.105263 0.473684 0 0.157895 0.473684 0 0.210526 0.473684 0 0.263158 0.473684 0 0.315789 0.473684 0 0.368421 0.473684 0 0.421053 0.473684 0 0.473684 0.473684 0 0.526316 0.473684 0 0.578947 0.473684 0 0.631579 0.473684 0 0.684211 0.473684 0 0.736842 0.473684 0 0.789474 0.473684 0 0.842105 0.473684 0 0.894737 0.473684 0 0.947368 0.473684 0 1 0.473684 0 0 0.526316 0 0.0526316 0.526316 0 0.105263 0.526316 0 0.157895 0.526316 0 0.210526 0.526316 0 0.263158 0.526316 0 0.315789 0.526316 0 0.368421 0.526316 0 0.421053 0.526316 0 0.473684 0.526316 0 0.526316 0.526316 0 0.578947 0.526316 0 0.631579 0.526316 0 0.684211 0.526316 0 0.736842 0.526316 0 0.789474 0.526316 0 0.842105 0.526316 0 0.894737 0.526316 0 0.947368 0.526316 0 1 0.526316 0 0 0.578947 0 0.0526316 0.578947 0 0.105263 0.578947 0 0.157895 0.578947 0 0.210526 0.578947 0 0.263158 0.578947 0 0.315789 0.578947 0 0.368421 0.578947 0 0.421053 0.578947 0 0.473684 0.578947 0 0.526316 0.578947 0 0.578947 0.578947 0 0.631579 0.578947 0 0.684211 0.578947 0 0.736842 0.578947 0 0.789474 0.578947 0 0.842105 0.578947 0 0.894737 0.578947 0 0.947368 0.578947 0 1 0.578947 0 0 0.631579 0 0.0526316 0.631579 0 0.105263 0.631579 0 0.157895 0.631579 0 0.210526 0.631579 0 0.263158 0.631579 0 0.315789 0.631579 0 0.368421 0.631579 0 0.421053 0.631579 0 0.473684 0.631579 0 0.526316 0.631579 0 0.578947 0.631579 0 0.631579 0.631579 0 0.684211 0.631579 0 0.736842 0.631579 0 0.789474 0.631579 0 0.842105 0.631579 0 0.894737 0.631579 0 0.947368 0.631579 0 1 0.631579 0 0 0.684211 0 0.0526316 0.684211 0 0.105263 0.684211 0 0.157895 0.684211 0 0.210526 0.684211 0 0.263158 0.684211 0 0.315789 0.684211 0 0.368421 0.684211 0 0.421053 0.684211 0 0.473684 0.684211 0 0.526316 0.684211 0 0.578947 0.684211 0 0.631579 0.684211 0 0.684211 0.684211 0 0.736842 0.684211 0 0.789474 0.684211 0 0.842105 0.684211 0 0.894737 0.684211 0 0.947368 0.684211 0 1 0.684211 0 0 0.736842 0 0.0526316 0.736842 0 0.105263 0.736842 0 0.157895 0.736842 0 0.210526 0.736842 0 0.263158 0.736842 0 0.315789 0.736842 0 0.368421 0.736842 0 0.421053 0.736842 0 0.473684 0.736842 0 0.526316 0.736842 0 0.578947 0.736842 0 0.631579 0.736842 0 0.684211 0.736842 0 0.736842 0.736842 0 0.789474 0.736842 0 0.842105 0.736842 0 0.894737 0.736842 0 0.947368 0.736842 0 1 0.736842 0 0 0.789474 0 0.0526316 0.789474 0 0.105263 0.789474 0 0.157895 0.789474 0 0.210526 0.789474 0 0.263158 0.789474 0 0.315789 0.789474 0 0.368421 0.789474 0 0.421053 0.789474 0 0.473684 0.789474 0 0.526316 0.789474 0 0.578947 0.789474 0 0.631579 0.789474 0 0.684211 0.789474 0 0.736842 0.789474 0 0.789474 0.789474 0 0.842105 0.789474 0 0.894737 0.789474 0 0.947368 0.789474 0 1 0.789474 0 0 0.842105 0 0.0526316 0.842105 0 0.105263 0.842105 0 0.157895 0.842105 0 0.210526 0.842105 0 0.263158 0.842105 0 0.315789 0.842105 0 0.368421 0.842105 0 0.421053 0.842105 0 0.473684 0.842105 0 0.526316 0.842105 0 0.578947 0.842105 0 0.631579 0.842105 0 0.684211 0.842105 0 0.736842 0.842105 0 0.789474 0.842105 0 0.842105 0.842105 0 0.894737 0.842105 0 0.947368 0.842105 0 1 0.842105 0 0 0.894737 0 0.0526316 0.894737 0 0.105263 0.894737 0 0.157895 0.894737 0 0.210526 0.894737 0 0.263158 0.894737 0 0.315789 0.894737 0 0.368421 0.894737 0 0.421053 0.894737 0 0.473684 0.894737 0 0.526316 0.894737 0 0.578947 0.894737 0 0.631579 0.894737 0 0.684211 0.894737 0 0.736842 0.894737 0 0.789474 0.894737 0 0.842105 0.894737 0 0.894737 0.894737 0 0.947368 0.894737 0 1 0.894737 0 0 0.947368 0 0.0526316 0.947368 0 0.105263 0.947368 0 0.157895 0.947368 0 0.210526 0.947368 0 0.263158 0.947368 0 0.315789 0.947368 0 0.368421 0.947368 0 0.421053 0.947368 0 0.473684 0.947368 0 0.526316 0.947368 0 0.578947 0.947368 0 0.631579 0.947368 0 0.684211 0.947368 0 0.736842 0.947368 0 0.789474 0.947368 0 0.842105 0.947368 0 0.894737 0.947368 0 0.947368 0.947368 0 1 0.947368 0 0 1 0 0.0526316 1 0 0.105263 1 0 0.157895 1 0 0.210526 1 0 0.263158 1 0 0.315789 1 0 0.368421 1 0 0.421053 1 0 0.473684 1 0 0.526316 1 0 0.578947 1 0 0.631579 1 0 0.684211 1 0 0.736842 1 0 0.789474 1 0 0.842105 1 0 0.894737 1 0 0.947368 1 0 1 1 0 
</DataArray>
</Points> 
</Piece> 
</StructuredGrid> 
</VTKFile> 
