<?xml version="1.0"?> 
<VTKFile type="StructuredGrid" version="0.1"> 
<StructuredGrid WholeExtent="0 14 0 14 0 14"> 
<Piece Extent="0 14 0 14 0 14"> 
<PointData Vectors="u">
<DataArray type="Float32" Name="u" format="ascii" NumberOfComponents="3"> 
0 0.67881 0 -0.0712701 0.658727 -1.89296e-014 -0.146068 0.646395 2.8341e-014 -0.228067 0.627405 -5.70076e-015 -0.293392 0.595543 -2.79386e-014 -0.35314 0.5612 1.68572e-014 -0.411263 0.518155 -1.51173e-014 -0.467889 0.467889 4.34673e-014 -0.518155 0.411263 -2.90004e-015 -0.5612 0.35314 -3.15954e-014 -0.595543 0.293392 7.81686e-015 -0.627405 0.228067 -8.16217e-015 -0.646395 0.146068 -1.62474e-014 -0.658727 0.0712701 1.92828e-014 -0.67881 0 0 0 0.695792 0 -0.0721046 0.675501 -9.05996e-015 -0.148124 0.663781 4.55053e-015 -0.232222 0.645536 1.08678e-014 -0.300034 0.614016 7.34853e-015 -0.362291 0.579434 1.24025e-014 -0.423436 0.535182 1.53186e-014 -0.482873 0.482873 -1.46304e-015 -0.535182 0.423436 5.24155e-015 -0.579434 0.362291 -2.42249e-016 -0.614016 0.300034 6.19098e-016 -0.645536 0.232222 2.22351e-015 -0.663781 0.148124 -4.12725e-015 -0.675501 0.0721046 -1.05714e-014 -0.695792 0 0 0 0.714383 0 -0.0734228 0.693733 -2.66046e-015 -0.151059 0.682281 -8.37974e-015 -0.237437 0.664317 1.68717e-014 -0.307619 0.632689 2.27588e-014 -0.37215 0.597594 8.07641e-015 -0.435939 0.552055 2.91554e-014 -0.497858 0.497858 -2.48245e-014 -0.552055 0.435939 8.42739e-015 -0.597594 0.37215 1.62512e-014 -0.632689 0.307619 -3.16547e-015 -0.664317 0.237437 8.01838e-015 -0.682281 0.151059 3.35248e-015 -0.693733 0.0734228 -2.5595e-014 -0.714383 0 0 0 0.735015 0 -0.0753549 0.713813 2.6889e-016 -0.155108 0.702198 -1.04498e-014 -0.243998 0.683923 1.23108e-014 -0.316401 0.651619 1.82923e-014 -0.382909 0.615661 3.87891e-015 -0.448864 0.568733 2.63931e-014 -0.512842 0.512842 -2.66171e-014 -0.568733 0.448864 6.65748e-015 -0.615661 0.382909 1.78851e-014 -0.651619 0.316401 -3.53685e-015 -0.683923 0.243998 9.22244e-015 -0.702198 0.155108 6.19184e-015 -0.713813 0.0753549 -2.57882e-014 -0.735015 0 0 0 0.758293 0 -0.0780824 0.736289 -2.719e-016 -0.160603 0.723948 -1.65963e-015 -0.252303 0.704598 -2.8147e-015 -0.326735 0.670878 -6.05105e-015 -0.394832 0.633608 -1.89979e-016 -0.462334 0.585158 7.03169e-015 -0.527827 0.527827 -6.84071e-015 -0.585158 0.462334 -6.81931e-017 -0.633608 0.394832 4.6593e-015 -0.670878 0.326735 -4.95041e-016 -0.704598 0.252303 5.83568e-015 -0.723948 0.160603 4.39083e-015 -0.736289 0.0780824 -1.11508e-014 -0.758293 0 0 0 0.785053 0 -0.0812412 0.762122 -4.1811e-015 -0.166959 0.74893 1.72012e-014 -0.261891 0.728331 -2.72196e-014 -0.338605 0.692946 -4.81658e-014 -0.408571 0.654136 -3.89589e-015 -0.477781 0.603967 -2.74247e-014 -0.544983 0.544983 3.26591e-014 -0.603967 0.477781 -1.11958e-014 -0.654136 0.408571 -2.2033e-014 -0.692946 0.338605 5.67075e-015 -0.728331 0.261891 -1.75362e-015 -0.74893 0.166959 -1.69574e-015 -0.762122 0.0812412 1.69192e-014 -0.785053 0 0 0 0.815954 0 -0.0841102 0.792216 -9.70913e-015 -0.172984 0.778822 3.25551e-014 -0.271674 0.75785 -3.87995e-014 -0.351664 0.72145 -7.1846e-014 -0.424806 0.681313 -3.20819e-015 -0.497228 0.629155 -5.11106e-014 -0.567557 0.567557 6.01461e-014 -0.629155 0.497228 -1.72009e-014 -0.681313 0.424806 -3.8235e-014 -0.72145 0.351664 9.98698e-015 -0.75785 0.271674 -6.8684e-015 -0.778822 0.172984 -5.96605e-015 -0.792216 0.0841102 3.43814e-014 -0.815954 0 0 0 0.85248 0 -0.0886704 0.827403 -1.62231e-014 -0.182076 0.812608 3.94907e-014 -0.285146 0.78963 -2.95587e-014 -0.368057 0.750665 -6.3995e-014 -0.443457 0.708241 3.33111e-015 -0.517843 0.653802 -5.46696e-014 -0.590131 0.590131 6.41405e-014 -0.653802 0.517843 -1.46385e-014 -0.708241 0.443457 -3.52807e-014 -0.750665 0.368057 1.06546e-014 -0.78963 0.285146 -7.09338e-015 -0.812608 0.182076 -6.21291e-015 -0.827403 0.0886704 3.254e-014 -0.85248 0 0 0 0.897378 0 -0.095748 0.870173 -2.37231e-014 -0.195733 0.85219 3.8008e-014 -0.30411 0.824775 5.02708e-016 -0.389413 0.780939 -2.46127e-014 -0.465702 0.734796 1.5722e-014 -0.540197 0.677642 -3.81019e-014 -0.612705 0.612705 4.46422e-014 -0.677642 0.540197 -3.50838e-015 -0.734796 0.465702 -1.31702e-014 -0.780939 0.389413 7.6736e-015 -0.824775 0.30411 -2.42857e-015 -0.85219 0.195733 -2.43632e-015 -0.870173 0.095748 1.13948e-014 -0.897378 0 0 0 0.955534 0 -0.106812 0.924948 -3.2209e-014 -0.216621 0.90095 2.8107e-014 -0.331769 0.865249 5.13848e-014 -0.418629 0.812888 4.63009e-014 -0.493639 0.760763 3.39645e-014 -0.565305 0.700206 -1.40734e-015 -0.635279 0.635279 1.65122e-015 -0.700206 0.565305 1.61893e-014 -0.760763 0.493639 2.80966e-014 -0.812888 0.418629 1.04399e-015 -0.865249 0.331769 7.12603e-015 -0.90095 0.216621 5.36372e-015 -0.924948 0.106812 -2.90542e-014 -0.955534 0 0 0 1.03294 0 -0.108222 1.00228 -4.06758e-014 -0.221957 0.983557 1.16108e-014 -0.346807 0.954658 1.11004e-013 -0.446623 0.906527 1.31639e-013 -0.536957 0.854639 5.34165e-014 -0.625839 0.788724 4.66141e-014 -0.712243 0.712243 -5.62686e-014 -0.788724 0.625839 4.0163e-014 -0.854639 0.536957 7.9545e-014 -0.906527 0.446623 -8.18696e-015 -0.954658 0.346807 1.97853e-014 -0.983557 0.221957 1.61919e-014 -1.00228 0.108222 -7.97707e-014 -1.03294 0 0 0 1.12635 0 -0.102906 1.09794 -4.45537e-014 -0.216555 1.09257 -3.19206e-015 -0.353478 1.08127 1.24421e-013 -0.47466 1.04645 1.53628e-013 -0.592462 0.999175 5.29734e-014 -0.713171 0.92636 6.59551e-014 -0.829839 0.829839 -9.01833e-014 -0.92636 0.713171 4.89014e-014 -0.999175 0.592462 1.00374e-013 -1.04645 0.47466 -1.5258e-014 -1.08127 0.353478 2.74338e-014 -1.09257 0.216555 2.55229e-014 -1.09794 0.102906 -9.96738e-014 -1.12635 0 0 0 1.25428 0 -0.107966 1.22484 -4.32817e-014 -0.229971 1.22547 -1.52841e-014 -0.382788 1.22176 8.48921e-014 -0.523153 1.19074 1.02721e-013 -0.6628 1.14218 3.00445e-014 -0.807662 1.06068 5.17046e-014 -0.947435 0.947435 -9.53135e-014 -1.06068 0.807662 4.00092e-014 -1.14218 0.6628 8.55738e-014 -1.19074 0.523153 -1.95846e-014 -1.22176 0.382788 2.90751e-014 -1.22547 0.229971 3.28014e-014 -1.22484 0.107966 -8.37203e-014 -1.25428 0 0 0 1.50746 0 -0.150673 1.46513 -3.68599e-014 -0.311662 1.44504 -2.46654e-014 -0.494242 1.4126 -7.58213e-015 -0.645865 1.35086 -2.1082e-014 -0.786953 1.27961 -1.53703e-014 -0.928128 1.18296 3.86251e-015 -1.06503 1.06503 -7.16592e-014 -1.18296 0.928128 1.34865e-014 -1.27961 0.786953 3.51456e-014 -1.35086 0.645865 -2.11669e-014 -1.4126 0.494242 2.47093e-014 -1.44504 0.311662 3.80272e-014 -1.46513 0.150673 -3.19104e-014 -1.50746 0 0 0 4.54307 0 -1.02968 4.22428 -2.52883e-014 -1.91006 3.59013 -3.13359e-014 -2.43046 2.7217 -1.53002e-013 -2.41731 1.86252 -2.17781e-013 -2.10657 1.29338 -8.32708e-014 -1.62561 1.03779 -7.75712e-014 -1.18263 1.18263 -1.92204e-014 -1.03779 1.62561 -3.06667e-014 -1.29338 2.10657 -5.09111e-014 -1.86252 2.41731 -2.00048e-014 -2.7217 2.43046 1.43364e-014 -3.59013 1.91006 4.12005e-014 -4.22428 1.02968 5.57561e-014 -4.54307 0 0 0 0.67881 0 -0.0712701 0.658727 -1.28057e-014 -0.146068 0.646395 1.99756e-014 -0.228067 0.627405 -3.16112e-015 -0.293392 0.595543 -1.90001e-014 -0.35314 0.5612 1.04454e-014 -0.411263 0.518155 -1.16003e-014 -0.467889 0.467889 2.89074e-014 -0.518155 0.411263 -6.11433e-016 -0.5612 0.35314 -2.41046e-014 -0.595543 0.293392 5.49396e-015 -0.627405 0.228067 -4.53643e-015 -0.646395 0.146068 -1.16889e-014 -0.658727 0.0712701 1.2907e-014 -0.67881 0 0 0 0.695792 0 -0.0721046 0.675501 -6.04906e-015 -0.148124 0.663781 4.33085e-015 -0.232222 0.645536 7.85076e-015 -0.300034 0.614016 5.28676e-015 -0.362291 0.579434 1.02073e-014 -0.423436 0.535182 1.04362e-014 -0.482873 0.482873 -5.47455e-016 -0.535182 0.423436 3.86231e-015 -0.579434 0.362291 4.8615e-016 -0.614016 0.300034 7.37266e-016 -0.645536 0.232222 1.61549e-015 -0.663781 0.148124 -2.56889e-015 -0.675501 0.0721046 -6.92232e-015 -0.695792 0 0 0 0.714383 0 -0.0734228 0.693733 -1.82029e-015 -0.151059 0.682281 -4.40893e-015 -0.237437 0.664317 1.16517e-014 -0.307619 0.632689 1.56219e-014 -0.37215 0.597594 8.23362e-015 -0.435939 0.552055 2.04533e-014 -0.497858 0.497858 -1.61968e-014 -0.552055 0.435939 5.12447e-015 -0.597594 0.37215 1.30364e-014 -0.632689 0.307619 -1.90538e-015 -0.664317 0.237437 5.19517e-015 -0.682281 0.151059 3.04927e-015 -0.693733 0.0734228 -1.70901e-014 -0.714383 0 0 0 0.735015 0 -0.0753549 0.713813 -1.19383e-016 -0.155108 0.702198 -6.2437e-015 -0.243998 0.683923 8.24183e-015 -0.316401 0.651619 1.20055e-014 -0.382909 0.615661 4.52424e-015 -0.448864 0.568733 1.84512e-014 -0.512842 0.512842 -1.80405e-014 -0.568733 0.448864 3.17504e-015 -0.615661 0.382909 1.35461e-014 -0.651619 0.316401 -2.43399e-015 -0.683923 0.243998 6.2026e-015 -0.702198 0.155108 5.16563e-015 -0.713813 0.0753549 -1.75963e-014 -0.735015 0 0 0 0.758293 0 -0.0780824 0.736289 -9.46336e-016 -0.160603 0.723948 -1.17348e-015 -0.252303 0.704598 -2.37896e-015 -0.326735 0.670878 -5.56261e-015 -0.394832 0.633608 -9.20818e-016 -0.462334 0.585158 4.42972e-015 -0.527827 0.527827 -6.07861e-015 -0.585158 0.462334 -1.98597e-015 -0.633608 0.394832 2.01541e-015 -0.670878 0.326735 -8.48546e-016 -0.704598 0.252303 4.63779e-015 -0.723948 0.160603 3.78017e-015 -0.736289 0.0780824 -8.44102e-015 -0.758293 0 0 0 0.785053 0 -0.0812412 0.762122 -4.20008e-015 -0.166959 0.74893 1.03325e-014 -0.261891 0.728331 -1.92997e-014 -0.338605 0.692946 -3.55532e-014 -0.408571 0.654136 -7.71149e-015 -0.477781 0.603967 -2.04834e-014 -0.544983 0.544983 1.85661e-014 -0.603967 0.477781 -9.92499e-015 -0.654136 0.408571 -2.03588e-014 -0.692946 0.338605 2.72293e-015 -0.728331 0.261891 7.2608e-016 -0.74893 0.166959 -8.36811e-016 -0.762122 0.0812412 9.48105e-015 -0.785053 0 0 0 0.815954 0 -0.0841102 0.792216 -8.14254e-015 -0.172984 0.778822 2.02051e-014 -0.271674 0.75785 -2.68551e-014 -0.351664 0.72145 -5.16697e-014 -0.424806 0.681313 -9.14008e-015 -0.497228 0.629155 -3.68959e-014 -0.567557 0.567557 3.65866e-014 -0.629155 0.497228 -1.31857e-014 -0.681313 0.424806 -3.29909e-014 -0.72145 0.351664 6.07897e-015 -0.75785 0.271674 -1.65697e-015 -0.778822 0.172984 -4.03733e-015 -0.792216 0.0841102 2.07816e-014 -0.815954 0 0 0 0.85248 0 -0.0886704 0.827403 -1.2145e-014 -0.182076 0.812608 2.55254e-014 -0.285146 0.78963 -1.93784e-014 -0.368057 0.750665 -4.44e-014 -0.443457 0.708241 -2.78023e-015 -0.517843 0.653802 -3.7793e-014 -0.590131 0.590131 4.09988e-014 -0.653802 0.517843 -9.07106e-015 -0.708241 0.443457 -2.84347e-014 -0.750665 0.368057 8.42327e-015 -0.78963 0.285146 -1.10947e-015 -0.812608 0.182076 -4.14007e-015 -0.827403 0.0886704 1.98942e-014 -0.85248 0 0 0 0.897378 0 -0.095748 0.870173 -1.62075e-014 -0.195733 0.85219 2.62934e-014 -0.30411 0.824775 3.13016e-015 -0.389413 0.780939 -1.3744e-014 -0.465702 0.734796 1.1368e-014 -0.540197 0.677642 -2.31748e-014 -0.612705 0.612705 3.18027e-014 -0.677642 0.540197 2.41901e-015 -0.734796 0.465702 -6.69021e-015 -0.780939 0.389413 9.75581e-015 -0.824775 0.30411 2.36856e-015 -0.85219 0.195733 -1.14505e-015 -0.870173 0.095748 6.8189e-015 -0.897378 0 0 0 0.955534 0 -0.106812 0.924948 -2.033e-014 -0.216621 0.90095 2.25092e-014 -0.331769 0.865249 4.06707e-014 -0.418629 0.812888 4.02983e-014 -0.493639 0.760763 3.33048e-014 -0.565305 0.700206 6.95872e-015 -0.635279 0.635279 8.99846e-015 -0.700206 0.565305 2.12845e-014 -0.760763 0.493639 3.22427e-014 -0.812888 0.418629 1.00766e-014 -0.865249 0.331769 8.77714e-015 -0.90095 0.216621 4.94773e-015 -0.924948 0.106812 -1.84443e-014 -0.955534 0 0 0 1.03294 0 -0.108222 1.00228 -2.42957e-014 -0.221957 0.983557 1.45769e-014 -0.346807 0.954658 8.406e-014 -0.446623 0.906527 1.04359e-013 -0.536957 0.854639 5.72628e-014 -0.625839 0.788724 4.49491e-014 -0.712243 0.712243 -2.35244e-014 -0.788724 0.625839 4.28895e-014 -0.854639 0.536957 7.93368e-014 -0.906527 0.446623 8.55202e-015 -0.954658 0.346807 1.65073e-014 -0.983557 0.221957 1.29948e-014 -1.00228 0.108222 -5.03436e-014 -1.03294 0 0 0 1.12635 0 -0.102906 1.09794 -2.71189e-014 -0.216555 1.09257 4.33443e-015 -0.353478 1.08127 9.15477e-014 -0.47466 1.04645 1.17667e-013 -0.592462 0.999175 5.70227e-014 -0.713171 0.92636 5.59786e-014 -0.829839 0.829839 -4.8082e-014 -0.92636 0.713171 4.61575e-014 -0.999175 0.592462 9.35524e-014 -1.04645 0.47466 1.39205e-015 -1.08127 0.353478 1.82443e-014 -1.09257 0.216555 1.77977e-014 -1.09794 0.102906 -6.36388e-014 -1.12635 0 0 0 1.25428 0 -0.107966 1.22484 -2.86786e-014 -0.229971 1.22547 -7.99264e-015 -0.382788 1.22176 5.80088e-014 -0.523153 1.19074 7.27603e-014 -0.6628 1.14218 2.9366e-014 -0.807662 1.06068 3.57728e-014 -0.947435 0.947435 -6.25037e-014 -1.06068 0.807662 2.85015e-014 -1.14218 0.6628 6.98513e-014 -1.19074 0.523153 -1.18686e-014 -1.22176 0.382788 1.30902e-014 -1.22547 0.229971 1.87181e-014 -1.22484 0.107966 -5.52316e-014 -1.25428 0 0 0 1.50746 0 -0.150673 1.46513 -2.89749e-014 -0.311662 1.44504 -2.24043e-014 -0.494242 1.4126 -1.65569e-014 -0.645865 1.35086 -3.03601e-014 -0.786953 1.27961 -2.57075e-014 -0.928128 1.18296 -1.5668e-014 -1.06503 1.06503 -6.67893e-014 -1.18296 0.928128 -1.00788e-014 -1.27961 0.786953 8.23371e-015 -1.35086 0.645865 -3.12298e-014 -1.4126 0.494242 1.045e-015 -1.44504 0.311662 1.5756e-014 -1.46513 0.150673 -2.5122e-014 -1.50746 0 0 0 4.54307 0 -1.02968 4.22428 -2.80076e-014 -1.91006 3.59013 -3.89006e-014 -2.43046 2.7217 -1.32149e-013 -2.41731 1.86252 -1.91694e-013 -2.10657 1.29338 -1.08198e-013 -1.62561 1.03779 -9.83441e-014 -1.18263 1.18263 -6.0939e-014 -1.03779 1.62561 -6.95832e-014 -1.29338 2.10657 -9.13005e-014 -1.86252 2.41731 -5.66917e-014 -2.7217 2.43046 -1.78913e-014 -3.59013 1.91006 8.91157e-015 -4.22428 1.02968 2.66901e-014 -4.54307 0 0 0 0.67881 0 -0.0712701 0.658727 -6.68176e-015 -0.146068 0.646395 1.16102e-014 -0.228067 0.627405 -6.21469e-016 -0.293392 0.595543 -1.00615e-014 -0.35314 0.5612 4.03352e-015 -0.411263 0.518155 -8.08326e-015 -0.467889 0.467889 1.43475e-014 -0.518155 0.411263 1.67718e-015 -0.5612 0.35314 -1.66138e-014 -0.595543 0.293392 3.17106e-015 -0.627405 0.228067 -9.10701e-016 -0.646395 0.146068 -7.13037e-015 -0.658727 0.0712701 6.53128e-015 -0.67881 0 0 0 0.695792 0 -0.0721046 0.675501 -3.03815e-015 -0.148124 0.663781 4.11116e-015 -0.232222 0.645536 4.8337e-015 -0.300034 0.614016 3.22499e-015 -0.362291 0.579434 8.01215e-015 -0.423436 0.535182 5.55379e-015 -0.482873 0.482873 3.68132e-016 -0.535182 0.423436 2.48306e-015 -0.579434 0.362291 1.21455e-015 -0.614016 0.300034 8.55433e-016 -0.645536 0.232222 1.00747e-015 -0.663781 0.148124 -1.01054e-015 -0.675501 0.0721046 -3.27326e-015 -0.695792 0 0 0 0.714383 0 -0.0734228 0.693733 -9.80115e-016 -0.151059 0.682281 -4.38115e-016 -0.237437 0.664317 6.4318e-015 -0.307619 0.632689 8.48506e-015 -0.37215 0.597594 8.39082e-015 -0.435939 0.552055 1.17513e-014 -0.497858 0.497858 -7.56901e-015 -0.552055 0.435939 1.82154e-015 -0.597594 0.37215 9.82155e-015 -0.632689 0.307619 -6.45293e-016 -0.664317 0.237437 2.37196e-015 -0.682281 0.151059 2.74606e-015 -0.693733 0.0734228 -8.58519e-015 -0.714383 0 0 0 0.735015 0 -0.0753549 0.713813 -5.07656e-016 -0.155108 0.702198 -2.03761e-015 -0.243998 0.683923 4.17282e-015 -0.316401 0.651619 5.71867e-015 -0.382909 0.615661 5.16956e-015 -0.448864 0.568733 1.05093e-014 -0.512842 0.512842 -9.46389e-015 -0.568733 0.448864 -3.074e-016 -0.615661 0.382909 9.20721e-015 -0.651619 0.316401 -1.33112e-015 -0.683923 0.243998 3.18277e-015 -0.702198 0.155108 4.13941e-015 -0.713813 0.0753549 -9.40452e-015 -0.735015 0 0 0 0.758293 0 -0.0780824 0.736289 -1.62077e-015 -0.160603 0.723948 -6.87328e-016 -0.252303 0.704598 -1.94323e-015 -0.326735 0.670878 -5.07418e-015 -0.394832 0.633608 -1.65166e-015 -0.462334 0.585158 1.82776e-015 -0.527827 0.527827 -5.31651e-015 -0.585158 0.462334 -3.90375e-015 -0.633608 0.394832 -6.28477e-016 -0.670878 0.326735 -1.20205e-015 -0.704598 0.252303 3.43989e-015 -0.723948 0.160603 3.16952e-015 -0.736289 0.0780824 -5.73125e-015 -0.758293 0 0 0 0.785053 0 -0.0812412 0.762122 -4.21906e-015 -0.166959 0.74893 3.46383e-015 -0.261891 0.728331 -1.13798e-014 -0.338605 0.692946 -2.29406e-014 -0.408571 0.654136 -1.15271e-014 -0.477781 0.603967 -1.35421e-014 -0.544983 0.544983 4.47318e-015 -0.603967 0.477781 -8.65419e-015 -0.654136 0.408571 -1.86845e-014 -0.692946 0.338605 -2.24902e-016 -0.728331 0.261891 3.20578e-015 -0.74893 0.166959 2.21187e-017 -0.762122 0.0812412 2.04291e-015 -0.785053 0 0 0 0.815954 0 -0.0841102 0.792216 -6.57596e-015 -0.172984 0.778822 7.85506e-015 -0.271674 0.75785 -1.49106e-014 -0.351664 0.72145 -3.14934e-014 -0.424806 0.681313 -1.5072e-014 -0.497228 0.629155 -2.26812e-014 -0.567557 0.567557 1.3027e-014 -0.629155 0.497228 -9.17051e-015 -0.681313 0.424806 -2.77469e-014 -0.72145 0.351664 2.17096e-015 -0.75785 0.271674 3.55446e-015 -0.778822 0.172984 -2.10861e-015 -0.792216 0.0841102 7.18169e-015 -0.815954 0 0 0 0.85248 0 -0.0886704 0.827403 -8.0669e-015 -0.182076 0.812608 1.15601e-014 -0.285146 0.78963 -9.19813e-015 -0.368057 0.750665 -2.4805e-014 -0.443457 0.708241 -8.89158e-015 -0.517843 0.653802 -2.09164e-014 -0.590131 0.590131 1.78571e-014 -0.653802 0.517843 -3.50364e-015 -0.708241 0.443457 -2.15888e-014 -0.750665 0.368057 6.19193e-015 -0.78963 0.285146 4.87443e-015 -0.812608 0.182076 -2.06724e-015 -0.827403 0.0886704 7.2484e-015 -0.85248 0 0 0 0.897378 0 -0.095748 0.870173 -8.6919e-015 -0.195733 0.85219 1.45788e-014 -0.30411 0.824775 5.75761e-015 -0.389413 0.780939 -2.87529e-015 -0.465702 0.734796 7.0141e-015 -0.540197 0.677642 -8.24776e-015 -0.612705 0.612705 1.89633e-014 -0.677642 0.540197 8.3464e-015 -0.734796 0.465702 -2.10251e-016 -0.780939 0.389413 1.1838e-014 -0.824775 0.30411 7.16569e-015 -0.85219 0.195733 1.46208e-016 -0.870173 0.095748 2.24305e-015 -0.897378 0 0 0 0.955534 0 -0.106812 0.924948 -8.45096e-015 -0.216621 0.90095 1.69113e-014 -0.331769 0.865249 2.99566e-014 -0.418629 0.812888 3.42956e-014 -0.493639 0.760763 3.2645e-014 -0.565305 0.700206 1.53248e-014 -0.635279 0.635279 1.63457e-014 -0.700206 0.565305 2.63796e-014 -0.760763 0.493639 3.63887e-014 -0.812888 0.418629 1.91092e-014 -0.865249 0.331769 1.04282e-014 -0.90095 0.216621 4.53175e-015 -0.924948 0.106812 -7.83437e-015 -0.955534 0 0 0 1.03294 0 -0.108222 1.00228 -7.91559e-015 -0.221957 0.983557 1.7543e-014 -0.346807 0.954658 5.71164e-014 -0.446623 0.906527 7.70799e-014 -0.536957 0.854639 6.11091e-014 -0.625839 0.788724 4.32842e-014 -0.712243 0.712243 9.21983e-015 -0.788724 0.625839 4.56159e-014 -0.854639 0.536957 7.91287e-014 -0.906527 0.446623 2.5291e-014 -0.954658 0.346807 1.32293e-014 -0.983557 0.221957 9.7978e-015 -1.00228 0.108222 -2.09164e-014 -1.03294 0 0 0 1.12635 0 -0.102906 1.09794 -9.68413e-015 -0.216555 1.09257 1.18609e-014 -0.353478 1.08127 5.86747e-014 -0.47466 1.04645 8.17056e-014 -0.592462 0.999175 6.10721e-014 -0.713171 0.92636 4.6002e-014 -0.829839 0.829839 -5.98075e-015 -0.92636 0.713171 4.34137e-014 -0.999175 0.592462 8.67311e-014 -1.04645 0.47466 1.80421e-014 -1.08127 0.353478 9.05486e-015 -1.09257 0.216555 1.00724e-014 -1.09794 0.102906 -2.76039e-014 -1.12635 0 0 0 1.25428 0 -0.107966 1.22484 -1.40756e-014 -0.229971 1.22547 -7.01126e-016 -0.382788 1.22176 3.11254e-014 -0.523153 1.19074 4.27996e-014 -0.6628 1.14218 2.86875e-014 -0.807662 1.06068 1.98411e-014 -0.947435 0.947435 -2.96938e-014 -1.06068 0.807662 1.69937e-014 -1.14218 0.6628 5.41288e-014 -1.19074 0.523153 -4.1525e-015 -1.22176 0.382788 -2.89467e-015 -1.22547 0.229971 4.63475e-015 -1.22484 0.107966 -2.67429e-014 -1.25428 0 0 0 1.50746 0 -0.150673 1.46513 -2.10899e-014 -0.311662 1.44504 -2.01432e-014 -0.494242 1.4126 -2.55316e-014 -0.645865 1.35086 -3.96382e-014 -0.786953 1.27961 -3.60447e-014 -0.928128 1.18296 -3.51986e-014 -1.06503 1.06503 -6.19194e-014 -1.18296 0.928128 -3.36441e-014 -1.27961 0.786953 -1.86782e-014 -1.35086 0.645865 -4.12928e-014 -1.4126 0.494242 -2.26193e-014 -1.44504 0.311662 -6.51518e-015 -1.46513 0.150673 -1.83336e-014 -1.50746 0 0 0 4.54307 0 -1.02968 4.22428 -3.0727e-014 -1.91006 3.59013 -4.64652e-014 -2.43046 2.7217 -1.11296e-013 -2.41731 1.86252 -1.65608e-013 -2.10657 1.29338 -1.33125e-013 -1.62561 1.03779 -1.19117e-013 -1.18263 1.18263 -1.02658e-013 -1.03779 1.62561 -1.085e-013 -1.29338 2.10657 -1.3169e-013 -1.86252 2.41731 -9.33787e-014 -2.7217 2.43046 -5.0119e-014 -3.59013 1.91006 -2.33774e-014 -4.22428 1.02968 -2.37579e-015 -4.54307 0 0 0 0.67881 0 -0.0712701 0.658727 -5.57841e-016 -0.146068 0.646395 3.24483e-015 -0.228067 0.627405 1.91818e-015 -0.293392 0.595543 -1.12302e-015 -0.35314 0.5612 -2.37833e-015 -0.411263 0.518155 -4.56622e-015 -0.467889 0.467889 -2.12364e-016 -0.518155 0.411263 3.96579e-015 -0.5612 0.35314 -9.12301e-015 -0.595543 0.293392 8.48155e-016 -0.627405 0.228067 2.71503e-015 -0.646395 0.146068 -2.57188e-015 -0.658727 0.0712701 1.55524e-016 -0.67881 0 0 0 0.695792 0 -0.0721046 0.675501 -2.72453e-017 -0.148124 0.663781 3.89148e-015 -0.232222 0.645536 1.81665e-015 -0.300034 0.614016 1.16323e-015 -0.362291 0.579434 5.81696e-015 -0.423436 0.535182 6.71413e-016 -0.482873 0.482873 1.28372e-015 -0.535182 0.423436 1.10382e-015 -0.579434 0.362291 1.94295e-015 -0.614016 0.300034 9.736e-016 -0.645536 0.232222 3.99453e-016 -0.663781 0.148124 5.47823e-016 -0.675501 0.0721046 3.75805e-016 -0.695792 0 0 0 0.714383 0 -0.0734228 0.693733 -1.39941e-016 -0.151059 0.682281 3.5327e-015 -0.237437 0.664317 1.21186e-015 -0.307619 0.632689 1.34819e-015 -0.37215 0.597594 8.54803e-015 -0.435939 0.552055 3.04929e-015 -0.497858 0.497858 1.05874e-015 -0.552055 0.435939 -1.48139e-015 -0.597594 0.37215 6.60671e-015 -0.632689 0.307619 6.14797e-016 -0.664317 0.237437 -4.51246e-016 -0.682281 0.151059 2.44285e-015 -0.693733 0.0734228 -8.02705e-017 -0.714383 0 0 0 0.735015 0 -0.0753549 0.713813 -8.95929e-016 -0.155108 0.702198 2.16848e-015 -0.243998 0.683923 1.03813e-016 -0.316401 0.651619 -5.68138e-016 -0.382909 0.615661 5.81488e-015 -0.448864 0.568733 2.56742e-015 -0.512842 0.512842 -8.87298e-016 -0.568733 0.448864 -3.78984e-015 -0.615661 0.382909 4.86827e-015 -0.651619 0.316401 -2.28255e-016 -0.683923 0.243998 1.62935e-016 -0.702198 0.155108 3.11319e-015 -0.713813 0.0753549 -1.2127e-015 -0.735015 0 0 0 0.758293 0 -0.0780824 0.736289 -2.29521e-015 -0.160603 0.723948 -2.0118e-016 -0.252303 0.704598 -1.50749e-015 -0.326735 0.670878 -4.58574e-015 -0.394832 0.633608 -2.3825e-015 -0.462334 0.585158 -7.74209e-016 -0.527827 0.527827 -4.5544e-015 -0.585158 0.462334 -5.82153e-015 -0.633608 0.394832 -3.27237e-015 -0.670878 0.326735 -1.55556e-015 -0.704598 0.252303 2.242e-015 -0.723948 0.160603 2.55886e-015 -0.736289 0.0780824 -3.02149e-015 -0.758293 0 0 0 0.785053 0 -0.0812412 0.762122 -4.23805e-015 -0.166959 0.74893 -3.40487e-015 -0.261891 0.728331 -3.45997e-015 -0.338605 0.692946 -1.0328e-014 -0.408571 0.654136 -1.53427e-014 -0.477781 0.603967 -6.60077e-015 -0.544983 0.544983 -9.61978e-015 -0.603967 0.477781 -7.3834e-015 -0.654136 0.408571 -1.70103e-014 -0.692946 0.338605 -3.17273e-015 -0.728331 0.261891 5.68548e-015 -0.74893 0.166959 8.81049e-016 -0.762122 0.0812412 -5.39523e-015 -0.785053 0 0 0 0.815954 0 -0.0841102 0.792216 -5.00937e-015 -0.172984 0.778822 -4.49498e-015 -0.271674 0.75785 -2.96618e-015 -0.351664 0.72145 -1.13171e-014 -0.424806 0.681313 -2.10039e-014 -0.497228 0.629155 -8.46651e-015 -0.567557 0.567557 -1.05325e-014 -0.629155 0.497228 -5.15529e-015 -0.681313 0.424806 -2.25028e-014 -0.72145 0.351664 -1.73706e-015 -0.75785 0.271674 8.76589e-015 -0.778822 0.172984 -1.79886e-016 -0.792216 0.0841102 -6.41819e-015 -0.815954 0 0 0 0.85248 0 -0.0886704 0.827403 -3.98879e-015 -0.182076 0.812608 -2.40529e-015 -0.285146 0.78963 9.82167e-016 -0.368057 0.750665 -5.20996e-015 -0.443457 0.708241 -1.50029e-014 -0.517843 0.653802 -4.03982e-015 -0.590131 0.590131 -5.2846e-015 -0.653802 0.517843 2.06377e-015 -0.708241 0.443457 -1.47428e-014 -0.750665 0.368057 3.96059e-015 -0.78963 0.285146 1.08583e-014 -0.812608 0.182076 5.58823e-018 -0.827403 0.0886704 -5.39738e-015 -0.85248 0 0 0 0.897378 0 -0.095748 0.870173 -1.1763e-015 -0.195733 0.85219 2.8642e-015 -0.30411 0.824775 8.38506e-015 -0.389413 0.780939 7.9934e-015 -0.465702 0.734796 2.66014e-015 -0.540197 0.677642 6.6793e-015 -0.612705 0.612705 6.12388e-015 -0.677642 0.540197 1.42738e-014 -0.734796 0.465702 6.26971e-015 -0.780939 0.389413 1.39202e-014 -0.824775 0.30411 1.19628e-014 -0.85219 0.195733 1.43747e-015 -0.870173 0.095748 -2.33281e-015 -0.897378 0 0 0 0.955534 0 -0.106812 0.924948 3.42809e-015 -0.216621 0.90095 1.13135e-014 -0.331769 0.865249 1.92425e-014 -0.418629 0.812888 2.8293e-014 -0.493639 0.760763 3.19853e-014 -0.565305 0.700206 2.36908e-014 -0.635279 0.635279 2.3693e-014 -0.700206 0.565305 3.14748e-014 -0.760763 0.493639 4.05348e-014 -0.812888 0.418629 2.81419e-014 -0.865249 0.331769 1.20793e-014 -0.90095 0.216621 4.11576e-015 -0.924948 0.106812 2.77553e-015 -0.955534 0 0 0 1.03294 0 -0.108222 1.00228 8.46452e-015 -0.221957 0.983557 2.05091e-014 -0.346807 0.954658 3.01728e-014 -0.446623 0.906527 4.98004e-014 -0.536957 0.854639 6.49554e-014 -0.625839 0.788724 4.16192e-014 -0.712243 0.712243 4.1964e-014 -0.788724 0.625839 4.83423e-014 -0.854639 0.536957 7.89205e-014 -0.906527 0.446623 4.203e-014 -0.954658 0.346807 9.95126e-015 -0.983557 0.221957 6.60077e-015 -1.00228 0.108222 8.51072e-015 -1.03294 0 0 0 1.12635 0 -0.102906 1.09794 7.75065e-015 -0.216555 1.09257 1.93874e-014 -0.353478 1.08127 2.58018e-014 -0.47466 1.04645 4.57444e-014 -0.592462 0.999175 6.51214e-014 -0.713171 0.92636 3.60254e-014 -0.829839 0.829839 3.61205e-014 -0.92636 0.713171 4.06699e-014 -0.999175 0.592462 7.99098e-014 -1.04645 0.47466 3.46921e-014 -1.08127 0.353478 -1.34597e-016 -1.09257 0.216555 2.34716e-015 -1.09794 0.102906 8.43105e-015 -1.12635 0 0 0 1.25428 0 -0.107966 1.22484 5.27533e-016 -0.229971 1.22547 6.59039e-015 -0.382788 1.22176 4.24204e-015 -0.523153 1.19074 1.28389e-014 -0.6628 1.14218 2.80089e-014 -0.807662 1.06068 3.9093e-015 -0.947435 0.947435 3.116e-015 -1.06068 0.807662 5.486e-015 -1.14218 0.6628 3.84063e-014 -1.19074 0.523153 3.56357e-015 -1.22176 0.382788 -1.88796e-014 -1.22547 0.229971 -9.44856e-015 -1.22484 0.107966 1.74576e-015 -1.25428 0 0 0 1.50746 0 -0.150673 1.46513 -1.32048e-014 -0.311662 1.44504 -1.7882e-014 -0.494242 1.4126 -3.45064e-014 -0.645865 1.35086 -4.89162e-014 -0.786953 1.27961 -4.6382e-014 -0.928128 1.18296 -5.47291e-014 -1.06503 1.06503 -5.70495e-014 -1.18296 0.928128 -5.72094e-014 -1.27961 0.786953 -4.559e-014 -1.35086 0.645865 -5.13557e-014 -1.4126 0.494242 -4.62836e-014 -1.44504 0.311662 -2.87864e-014 -1.46513 0.150673 -1.15452e-014 -1.50746 0 0 0 4.54307 0 -1.02968 4.22428 -3.34464e-014 -1.91006 3.59013 -5.40298e-014 -2.43046 2.7217 -9.04435e-014 -2.41731 1.86252 -1.39521e-013 -2.10657 1.29338 -1.58051e-013 -1.62561 1.03779 -1.3989e-013 -1.18263 1.18263 -1.44376e-013 -1.03779 1.62561 -1.47416e-013 -1.29338 2.10657 -1.72079e-013 -1.86252 2.41731 -1.30066e-013 -2.7217 2.43046 -8.23468e-014 -3.59013 1.91006 -5.56663e-014 -4.22428 1.02968 -3.14417e-014 -4.54307 0 0 0 0.67881 0 -0.0712701 0.658727 5.56608e-015 -0.146068 0.646395 -5.12056e-015 -0.228067 0.627405 4.45783e-015 -0.293392 0.595543 7.8155e-015 -0.35314 0.5612 -8.79018e-015 -0.411263 0.518155 -1.04918e-015 -0.467889 0.467889 -1.47723e-014 -0.518155 0.411263 6.25439e-015 -0.5612 0.35314 -1.63222e-015 -0.595543 0.293392 -1.47475e-015 -0.627405 0.228067 6.34077e-015 -0.646395 0.146068 1.98661e-015 -0.658727 0.0712701 -6.22023e-015 -0.67881 0 0 0 0.695792 0 -0.0721046 0.675501 2.98366e-015 -0.148124 0.663781 3.6718e-015 -0.232222 0.645536 -1.2004e-015 -0.300034 0.614016 -8.98542e-016 -0.362291 0.579434 3.62177e-015 -0.423436 0.535182 -4.21097e-015 -0.482873 0.482873 2.19931e-015 -0.535182 0.423436 -2.75426e-016 -0.579434 0.362291 2.67135e-015 -0.614016 0.300034 1.09177e-015 -0.645536 0.232222 -2.08566e-016 -0.663781 0.148124 2.10618e-015 -0.675501 0.0721046 4.02487e-015 -0.695792 0 0 0 0.714383 0 -0.0734228 0.693733 7.00233e-016 -0.151059 0.682281 7.50351e-015 -0.237437 0.664317 -4.00808e-015 -0.307619 0.632689 -5.78869e-015 -0.37215 0.597594 8.70524e-015 -0.435939 0.552055 -5.65273e-015 -0.497858 0.497858 9.68649e-015 -0.552055 0.435939 -4.78432e-015 -0.597594 0.37215 3.39186e-015 -0.632689 0.307619 1.87489e-015 -0.664317 0.237437 -3.27445e-015 -0.682281 0.151059 2.13964e-015 -0.693733 0.0734228 8.42465e-015 -0.714383 0 0 0 0.735015 0 -0.0753549 0.713813 -1.2842e-015 -0.155108 0.702198 6.37457e-015 -0.243998 0.683923 -3.9652e-015 -0.316401 0.651619 -6.85495e-015 -0.382909 0.615661 6.4602e-015 -0.448864 0.568733 -5.37446e-015 -0.512842 0.512842 7.68929e-015 -0.568733 0.448864 -7.27228e-015 -0.615661 0.382909 5.2933e-016 -0.651619 0.316401 8.7461e-016 -0.683923 0.243998 -2.8569e-015 -0.702198 0.155108 2.08698e-015 -0.713813 0.0753549 6.97912e-015 -0.735015 0 0 0 0.758293 0 -0.0780824 0.736289 -2.96964e-015 -0.160603 0.723948 2.84969e-016 -0.252303 0.704598 -1.07176e-015 -0.326735 0.670878 -4.09731e-015 -0.394832 0.633608 -3.11333e-015 -0.462334 0.585158 -3.37617e-015 -0.527827 0.527827 -3.7923e-015 -0.585158 0.462334 -7.73931e-015 -0.633608 0.394832 -5.91626e-015 -0.670878 0.326735 -1.90906e-015 -0.704598 0.252303 1.0441e-015 -0.723948 0.160603 1.94821e-015 -0.736289 0.0780824 -3.11723e-016 -0.758293 0 0 0 0.785053 0 -0.0812412 0.762122 -4.25703e-015 -0.166959 0.74893 -1.02736e-014 -0.261891 0.728331 4.45991e-015 -0.338605 0.692946 2.28467e-015 -0.408571 0.654136 -1.91583e-014 -0.477781 0.603967 3.40541e-016 -0.544983 0.544983 -2.37127e-014 -0.603967 0.477781 -6.1126e-015 -0.654136 0.408571 -1.5336e-014 -0.692946 0.338605 -6.12055e-015 -0.728331 0.261891 8.16519e-015 -0.74893 0.166959 1.73998e-015 -0.762122 0.0812412 -1.28334e-014 -0.785053 0 0 0 0.815954 0 -0.0841102 0.792216 -3.44278e-015 -0.172984 0.778822 -1.6845e-014 -0.271674 0.75785 8.97827e-015 -0.351664 0.72145 8.85924e-015 -0.424806 0.681313 -2.69358e-014 -0.497228 0.629155 5.74818e-015 -0.567557 0.567557 -3.4092e-014 -0.629155 0.497228 -1.14007e-015 -0.681313 0.424806 -1.72588e-014 -0.72145 0.351664 -5.64507e-015 -0.75785 0.271674 1.39773e-014 -0.778822 0.172984 1.74883e-015 -0.792216 0.0841102 -2.00181e-014 -0.815954 0 0 0 0.85248 0 -0.0886704 0.827403 8.93273e-017 -0.182076 0.812608 -1.63706e-014 -0.285146 0.78963 1.11625e-014 -0.368057 0.750665 1.4385