<?xml version="1.0"?> 
<VTKFile type="StructuredGrid" version="0.1"> 
<StructuredGrid WholeExtent="0 19 0 19 0 0"> 
<Piece Extent="0 19 0 19 0 0"> 
<PointData Vectors="u">
<DataArray type="Float32" Name="u" format="ascii" NumberOfComponents="3"> 
0 0.841103 0 0 0.86835 0 0 0.893191 0 0 0.915559 0 0 0.93539 0 0 0.952631 0 0 0.967234 0 0 0.979157 0 0 0.988369 0 0 0.994842 0 0 0.998561 0 0 0.999513 0 0 0.997697 0 0 0.993118 0 0 0.985787 0 0 0.975726 0 0 0.962962 0 0 0.947531 0 0 0.929473 0 0 0.908841 0 0.0754199 0.840003 0 0.0793817 0.867319 0 0.0833416 0.892245 0 0.0873006 0.914716 0 0.0912576 0.934667 0 0.0952141 0.952045 0 0.0991682 0.966801 0 0.103121 0.978895 0 0.107072 0.988295 0 0.111022 0.994972 0 0.11497 0.998911 0 0.118916 1.0001 0 0.12286 0.998532 0 0.126802 0.994218 0 0.130743 0.987165 0 0.13468 0.977395 0 0.138617 0.964933 0 0.14255 0.949816 0 0.146481 0.932083 0 0.150409 0.911784 0 0.152116 0.83496 0 0.160056 0.862429 0 0.167984 0.887564 0 0.175902 0.910299 0 0.183808 0.930571 0 0.191703 0.948326 0 0.199584 0.963516 0 0.207454 0.9761 0 0.215309 0.986043 0 0.223152 0.993319 0 0.230979 0.997908 0 0.238792 0.999797 0 0.24659 0.998982 0 0.254371 0.995465 0 0.262137 0.989254 0 0.269885 0.980368 0 0.277617 0.968829 0 0.28533 0.95467 0 0.293026 0.937928 0 0.300702 0.918649 0 0.228887 0.826667 0 0.240704 0.854398 0 0.252483 0.879887 0 0.264225 0.903071 0 0.275927 0.923886 0 0.287591 0.942279 0 0.299209 0.958202 0 0.310786 0.971612 0 0.322314 0.982475 0 0.333797 0.990762 0 0.345229 0.996451 0 0.356611 0.999528 0 0.367939 0.999984 0 0.379213 0.997818 0 0.390431 0.993036 0 0.401591 0.98565 0 0.412692 0.97568 0 0.423731 0.963152 0 0.434709 0.948098 0 0.44562 0.930558 0 0.304619 0.813857 0 0.320097 0.841901 0 0.335487 0.867834 0 0.35079 0.891597 0 0.365996 0.913125 0 0.381109 0.932369 0 0.396117 0.949277 0 0.411024 0.963809 0 0.425817 0.975928 0 0.440501 0.985604 0 0.455065 0.992812 0 0.46951 0.997535 0 0.483829 0.999761 0 0.49802 0.999484 0 0.512079 0.996706 0 0.526001 0.991432 0 0.539784 0.983677 0 0.553423 0.973461 0 0.566916 0.960808 0 0.580257 0.94575 0 0.377854 0.796712 0 0.39666 0.825084 0 0.415296 0.851512 0 0.433762 0.875937 0 0.452044 0.898298 0 0.470143 0.918546 0 0.488042 0.93663 0 0.505743 0.952511 0 0.523228 0.966147 0 0.540501 0.977511 0 0.557545 0.986571 0 0.574361 0.99331 0 0.590935 0.997709 0 0.607266 0.999759 0 0.623344 0.999455 0 0.639163 0.996798 0 0.654716 0.991793 0 0.669997 0.984452 0 0.685001 0.974793 0 0.699719 0.962838 0 0.447453 0.774643 0 0.469157 0.803297 0 0.490577 0.830201 0 0.511707 0.855304 0 0.532528 0.878545 0 0.553037 0.89988 0 0.57321 0.919257 0 0.593047 0.936639 0 0.612524 0.951983 0 0.631642 0.965261 0 0.650378 0.97644 0 0.668731 0.985499 0 0.68668 0.992414 0 0.704223 0.997176 0 0.721343 0.999769 0 0.738035 1.00019 0 0.754285 0.99844 0 0.770085 0.994521 0 0.785426 0.98844 0 0.800298 0.980213 0 0.512693 0.746281 0 0.536813 0.775045 0 0.560498 0.802282 0 0.583735 0.827943 0 0.606499 0.851971 0 0.628783 0.874328 0 0.650555 0.89496 0 0.671813 0.913836 0 0.692523 0.93091 0 0.712686 0.946157 0 0.732269 0.959538 0 0.751272 0.971036 0 0.769665 0.98062 0 0.787446 0.988277 0 0.804592 0.993988 0 0.821094 0.997746 0 0.836936 0.999539 0 0.852108 0.999366 0 0.866596 0.997228 0 0.880388 0.993127 0 0.571757 0.712961 0 0.597744 0.741635 0 0.623113 0.769011 0 0.647845 0.79505 0 0.671908 0.819698 0 0.695288 0.842922 0 0.717946 0.864671 0 0.739876 0.884919 0 0.761039 0.903617 0 0.781429 0.920746 0 0.801009 0.936264 0 0.819775 0.950154 0 0.837692 0.962383 0 0.854756 0.972938 0 0.870938 0.981792 0 0.88623 0.988937 0 0.900611 0.994356 0 0.914068 0.998041 0 0.926587 0.999985 0 0.938156 1.00019 0 0.625709 0.67188 0 0.653068 0.700086 0 0.679596 0.727234 0 0.705268 0.753291 0 0.730041 0.77821 0 0.753898 0.801965 0 0.776792 0.824507 0 0.798712 0.845816 0 0.819612 0.865846 0 0.839484 0.884581 0 0.858284 0.901978 0 0.876006 0.918025 0 0.892612 0.932687 0 0.908093 0.94595 0 0.922421 0.957787 0 0.935584 0.968188 0 0.94756 0.97713 0 0.958337 0.984605 0 0.967901 0.990599 0 0.97624 0.995104 0 0.67188 0.625709 0 0.700086 0.653068 0 0.727234 0.679596 0 0.753291 0.705268 0 0.77821 0.730041 0 0.801965 0.753898 0 0.824507 0.776792 0 0.845816 0.798712 0 0.865846 0.819612 0 0.884581 0.839484 0 0.901978 0.858284 0 0.918025 0.876006 0 0.932687 0.892612 0 0.94595 0.908093 0 0.957787 0.922421 0 0.968188 0.935584 0 0.97713 0.94756 0 0.984605 0.958337 0 0.990599 0.967901 0 0.995104 0.97624 0 0.712961 0.571757 0 0.741635 0.597744 0 0.769011 0.623113 0 0.79505 0.647845 0 0.819698 0.671908 0 0.842922 0.695288 0 0.864671 0.717946 0 0.884919 0.739876 0 0.903617 0.761039 0 0.920746 0.781429 0 0.936264 0.801009 0 0.950154 0.819775 0 0.962383 0.837692 0 0.972938 0.854756 0 0.981792 0.870938 0 0.988937 0.88623 0 0.994356 0.900611 0 0.998041 0.914068 0 0.999985 0.926587 0 1.00019 0.938156 0 0.746281 0.512693 0 0.775045 0.536813 0 0.802282 0.560498 0 0.827943 0.583735 0 0.851971 0.606499 0 0.874328 0.628783 0 0.89496 0.650555 0 0.913836 0.671813 0 0.93091 0.692523 0 0.946157 0.712686 0 0.959538 0.732269 0 0.971036 0.751272 0 0.98062 0.769665 0 0.988277 0.787446 0 0.993988 0.804592 0 0.997746 0.821094 0 0.999539 0.836936 0 0.999366 0.852108 0 0.997228 0.866596 0 0.993127 0.880388 0 0.774643 0.447453 0 0.803297 0.469157 0 0.830201 0.490577 0 0.855304 0.511707 0 0.878545 0.532528 0 0.89988 0.553037 0 0.919257 0.57321 0 0.936639 0.593047 0 0.951983 0.612524 0 0.965261 0.631642 0 0.97644 0.650378 0 0.985499 0.668731 0 0.992414 0.68668 0 0.997176 0.704223 0 0.999769 0.721343 0 1.00019 0.738035 0 0.99844 0.754285 0 0.994521 0.770085 0 0.98844 0.785426 0 0.980213 0.800298 0 0.796712 0.377854 0 0.825084 0.39666 0 0.851512 0.415296 0 0.875937 0.433762 0 0.898298 0.452044 0 0.918546 0.470143 0 0.93663 0.488042 0 0.952511 0.505743 0 0.966147 0.523228 0 0.977511 0.540501 0 0.986571 0.557545 0 0.99331 0.574361 0 0.997709 0.590935 0 0.999759 0.607266 0 0.999455 0.623344 0 0.996798 0.639163 0 0.991793 0.654716 0 0.984452 0.669997 0 0.974793 0.685001 0 0.962838 0.699719 0 0.813857 0.304619 0 0.841901 0.320097 0 0.867834 0.335487 0 0.891597 0.35079 0 0.913125 0.365996 0 0.932369 0.381109 0 0.949277 0.396117 0 0.963809 0.411024 0 0.975928 0.425817 0 0.985604 0.440501 0 0.992812 0.455065 0 0.997535 0.46951 0 0.999761 0.483829 0 0.999484 0.49802 0 0.996706 0.512079 0 0.991432 0.526001 0 0.983677 0.539784 0 0.973461 0.553423 0 0.960808 0.566916 0 0.94575 0.580257 0 0.826667 0.228887 0 0.854398 0.240704 0 0.879887 0.252483 0 0.903071 0.264225 0 0.923886 0.275927 0 0.942279 0.287591 0 0.958202 0.299209 0 0.971612 0.310786 0 0.982475 0.322314 0 0.990762 0.333797 0 0.996451 0.345229 0 0.999528 0.356611 0 0.999984 0.367939 0 0.997818 0.379213 0 0.993036 0.390431 0 0.98565 0.401591 0 0.97568 0.412692 0 0.963152 0.423731 0 0.948098 0.434709 0 0.930558 0.44562 0 0.83496 0.152116 0 0.862429 0.160056 0 0.887564 0.167984 0 0.910299 0.175902 0 0.930571 0.183808 0 0.948326 0.191703 0 0.963516 0.199584 0 0.9761 0.207454 0 0.986043 0.215309 0 0.993319 0.223152 0 0.997908 0.230979 0 0.999797 0.238792 0 0.998982 0.24659 0 0.995465 0.254371 0 0.989254 0.262137 0 0.980368 0.269885 0 0.968829 0.277617 0 0.95467 0.28533 0 0.937928 0.293026 0 0.918649 0.300702 0 0.840003 0.0754199 0 0.867319 0.0793817 0 0.892245 0.0833416 0 0.914716 0.0873006 0 0.934667 0.0912576 0 0.952045 0.0952141 0 0.966801 0.0991682 0 0.978895 0.103121 0 0.988295 0.107072 0 0.994972 0.111022 0 0.998911 0.11497 0 1.0001 0.118916 0 0.998532 0.12286 0 0.994218 0.126802 0 0.987165 0.130743 0 0.977395 0.13468 0 0.964933 0.138617 0 0.949816 0.14255 0 0.932083 0.146481 0 0.911784 0.150409 0 0.841103 0 0 0.86835 0 0 0.893191 0 0 0.915559 0 0 0.93539 0 0 0.952631 0 0 0.967234 0 0 0.979157 0 0 0.988369 0 0 0.994842 0 0 0.998561 0 0 0.999513 0 0 0.997697 0 0 0.993118 0 0 0.985787 0 0 0.975726 0 0 0.962962 0 0 0.947531 0 0 0.929473 0 0 0.908841 0 0 </DataArray> 
</PointData> 
<Points> 
<DataArray type="Float32" NumberOfComponents="3"> 
1 0 0 1.05263 0 0 1.10526 0 0 1.15789 0 0 1.21053 0 0 1.26316 0 0 1.31579 0 0 1.36842 0 0 1.42105 0 0 1.47368 0 0 1.52632 0 0 1.57895 0 0 1.63158 0 0 1.68421 0 0 1.73684 0 0 1.78947 0 0 1.84211 0 0 1.89474 0 0 1.94737 0 0 2 0 0 0.997147 0.0754898 0 1.04963 0.079463 0 1.10211 0.0834361 0 1.15459 0.0874093 0 1.20707 0.0913824 0 1.25955 0.0953555 0 1.31203 0.0993287 0 1.36452 0.103302 0 1.417 0.107275 0 1.46948 0.111248 0 1.52196 0.115221 0 1.57444 0.119194 0 1.62692 0.123168 0 1.6794 0.127141 0 1.73189 0.131114 0 1.78437 0.135087 0 1.83685 0.13906 0 1.88933 0.143033 0 1.94181 0.147006 0 1.99429 0.15098 0 0.988273 0.1527 0 1.04029 0.160736 0 1.0923 0.168773 0 1.14432 0.17681 0 1.19633 0.184847 0 1.24834 0.192884 0 1.30036 0.20092 0 1.35237 0.208957 0 1.40439 0.216994 0 1.4564 0.225031 0 1.50842 0.233068 0 1.56043 0.241105 0 1.61244 0.249141 0 1.66446 0.257178 0 1.71647 0.265215 0 1.76849 0.273252 0 1.8205 0.281289 0 1.87252 0.289325 0 1.92453 0.297362 0 1.97655 0.305399 0 0.972963 0.230959 0 1.02417 0.243115 0 1.07538 0.255271 0 1.12659 0.267427 0 1.1778 0.279582 0 1.22901 0.291738 0 1.28022 0.303894 0 1.33142 0.31605 0 1.38263 0.328205 0 1.43384 0.340361 0 1.48505 0.352517 0 1.53626 0.364673 0 1.58747 0.376828 0 1.63868 0.388984 0 1.68988 0.40114 0 1.74109 0.413296 0 1.7923 0.425451 0 1.84351 0.437607 0 1.89472 0.449763 0 1.94593 0.461919 0 0.950898 0.309504 0 1.00095 0.325794 0 1.05099 0.342084 0 1.10104 0.358373 0 1.15109 0.374663 0 1.20113 0.390953 0 1.25118 0.407242 0 1.30123 0.423532 0 1.35128 0.439822 0 1.40132 0.456111 0 1.45137 0.472401 0 1.50142 0.488691 0 1.55147 0.504981 0 1.60151 0.52127 0 1.65156 0.53756 0 1.70161 0.55385 0 1.75165 0.570139 0 1.8017 0.586429 0 1.85175 0.602719 0 1.9018 0.619008 0 0.921874 0.38749 0 0.970393 0.407885 0 1.01891 0.428279 0 1.06743 0.448673 0 1.11595 0.469067 0 1.16447 0.489461 0 1.21299 0.509856 0 1.26151 0.53025 0 1.31003 0.550644 0 1.35855 0.571038 0 1.40707 0.591433 0 1.45559 0.611827 0 1.50411 0.632221 0 1.55263 0.652615 0 1.60115 0.67301 0 1.64967 0.693404 0 1.69819 0.713798 0 1.74671 0.734192 0 1.79523 0.754586 0 1.84375 0.774981 0 0.885826 0.464017 0 0.932449 0.488439 0 0.979071 0.512861 0 1.02569 0.537283 0 1.07232 0.561705 0 1.11894 0.586127 0 1.16556 0.610549 0 1.21218 0.634971 0 1.25881 0.659393 0 1.30543 0.683815 0 1.35205 0.708237 0 1.39867 0.732659 0 1.4453 0.757081 0 1.49192 0.781503 0 1.53854 0.805925 0 1.58516 0.830347 0 1.63179 0.854769 0 1.67841 0.879191 0 1.72503 0.903613 0 1.77165 0.928035 0 0.842845 0.538157 0 0.887205 0.566481 0 0.931565 0.594805 0 0.975926 0.623129 0 1.02029 0.651453 0 1.06465 0.679777 0 1.10901 0.708101 0 1.15337 0.736425 0 1.19773 0.764749 0 1.24209 0.793073 0 1.28645 0.821397 0 1.33081 0.849721 0 1.37517 0.878045 0 1.41953 0.906369 0 1.46389 0.934693 0 1.50825 0.963017 0 1.55261 0.991341 0 1.59697 1.01966 0 1.64133 1.04799 0 1.68569 1.07631 0 0.793182 0.608985 0 0.834928 0.641037 0 0.876675 0.673088 0 0.918421 0.70514 0 0.960168 0.737192 0 1.00191 0.769244 0 1.04366 0.801296 0 1.08541 0.833347 0 1.12715 0.865399 0 1.1689 0.897451 0 1.21065 0.929503 0 1.25239 0.961555 0 1.29414 0.993607 0 1.33589 1.02566 0 1.37763 1.05771 0 1.41938 1.08976 0 1.46112 1.12181 0 1.50287 1.15387 0 1.54462 1.18592 0 1.58636 1.21797 0 0.737251 0.675619 0 0.776054 0.711178 0 0.814857 0.746737 0 0.853659 0.782295 0 0.892462 0.817854 0 0.931265 0.853413 0 0.970067 0.888972 0 1.00887 0.924531 0 1.04767 0.96009 0 1.08648 0.995649 0 1.12528 1.03121 0 1.16408 1.06677 0 1.20288 1.10233 0 1.24169 1.13788 0 1.28049 1.17344 0 1.31929 1.209 0 1.35809 1.24456 0 1.3969 1.28012 0 1.4357 1.31568 0 1.4745 1.35124 0 0.675619 0.737251 0 0.711178 0.776054 0 0.746737 0.814857 0 0.782295 0.853659 0 0.817854 0.892462 0 0.853413 0.931265 0 0.888972 0.970067 0 0.924531 1.00887 0 0.96009 1.04767 0 0.995649 1.08648 0 1.03121 1.12528 0 1.06677 1.16408 0 1.10233 1.20288 0 1.13788 1.24169 0 1.17344 1.28049 0 1.209 1.31929 0 1.24456 1.35809 0 1.28012 1.3969 0 1.31568 1.4357 0 1.35124 1.4745 0 0.608985 0.793182 0 0.641037 0.834928 0 0.673088 0.876675 0 0.70514 0.918421 0 0.737192 0.960168 0 0.769244 1.00191 0 0.801296 1.04366 0 0.833347 1.08541 0 0.865399 1.12715 0 0.897451 1.1689 0 0.929503 1.21065 0 0.961555 1.25239 0 0.993607 1.29414 0 1.02566 1.33589 0 1.05771 1.37763 0 1.08976 1.41938 0 1.12181 1.46112 0 1.15387 1.50287 0 1.18592 1.54462 0 1.21797 1.58636 0 0.538157 0.842845 0 0.566481 0.887205 0 0.594805 0.931565 0 0.623129 0.975926 0 0.651453 1.02029 0 0.679777 1.06465 0 0.708101 1.10901 0 0.736425 1.15337 0 0.764749 1.19773 0 0.793073 1.24209 0 0.821397 1.28645 0 0.849721 1.33081 0 0.878045 1.37517 0 0.906369 1.41953 0 0.934693 1.46389 0 0.963017 1.50825 0 0.991341 1.55261 0 1.01966 1.59697 0 1.04799 1.64133 0 1.07631 1.68569 0 0.464017 0.885826 0 0.488439 0.932449 0 0.512861 0.979071 0 0.537283 1.02569 0 0.561705 1.07232 0 0.586127 1.11894 0 0.610549 1.16556 0 0.634971 1.21218 0 0.659393 1.25881 0 0.683815 1.30543 0 0.708237 1.35205 0 0.732659 1.39867 0 0.757081 1.4453 0 0.781503 1.49192 0 0.805925 1.53854 0 0.830347 1.58516 0 0.854769 1.63179 0 0.879191 1.67841 0 0.903613 1.72503 0 0.928035 1.77165 0 0.38749 0.921874 0 0.407885 0.970393 0 0.428279 1.01891 0 0.448673 1.06743 0 0.469067 1.11595 0 0.489461 1.16447 0 0.509856 1.21299 0 0.53025 1.26151 0 0.550644 1.31003 0 0.571038 1.35855 0 0.591433 1.40707 0 0.611827 1.45559 0 0.632221 1.50411 0 0.652615 1.55263 0 0.67301 1.60115 0 0.693404 1.64967 0 0.713798 1.69819 0 0.734192 1.74671 0 0.754586 1.79523 0 0.774981 1.84375 0 0.309504 0.950898 0 0.325794 1.00095 0 0.342084 1.05099 0 0.358373 1.10104 0 0.374663 1.15109 0 0.390953 1.20113 0 0.407242 1.25118 0 0.423532 1.30123 0 0.439822 1.35128 0 0.456111 1.40132 0 0.472401 1.45137 0 0.488691 1.50142 0 0.504981 1.55147 0 0.52127 1.60151 0 0.53756 1.65156 0 0.55385 1.70161 0 0.570139 1.75165 0 0.586429 1.8017 0 0.602719 1.85175 0 0.619008 1.9018 0 0.230959 0.972963 0 0.243115 1.02417 0 0.255271 1.07538 0 0.267427 1.12659 0 0.279582 1.1778 0 0.291738 1.22901 0 0.303894 1.28022 0 0.31605 1.33142 0 0.328205 1.38263 0 0.340361 1.43384 0 0.352517 1.48505 0 0.364673 1.53626 0 0.376828 1.58747 0 0.388984 1.63868 0 0.40114 1.68988 0 0.413296 1.74109 0 0.425451 1.7923 0 0.437607 1.84351 0 0.449763 1.89472 0 0.461919 1.94593 0 0.1527 0.988273 0 0.160736 1.04029 0 0.168773 1.0923 0 0.17681 1.14432 0 0.184847 1.19633 0 0.192884 1.24834 0 0.20092 1.30036 0 0.208957 1.35237 0 0.216994 1.40439 0 0.225031 1.4564 0 0.233068 1.50842 0 0.241105 1.56043 0 0.249141 1.61244 0 0.257178 1.66446 0 0.265215 1.71647 0 0.273252 1.76849 0 0.281289 1.8205 0 0.289325 1.87252 0 0.297362 1.92453 0 0.305399 1.97655 0 0.0754898 0.997147 0 0.079463 1.04963 0 0.0834361 1.10211 0 0.0874093 1.15459 0 0.0913824 1.20707 0 0.0953555 1.25955 0 0.0993287 1.31203 0 0.103302 1.36452 0 0.107275 1.417 0 0.111248 1.46948 0 0.115221 1.52196 0 0.119194 1.57444 0 0.123168 1.62692 0 0.127141 1.6794 0 0.131114 1.73189 0 0.135087 1.78437 0 0.13906 1.83685 0 0.143033 1.88933 0 0.147006 1.94181 0 0.15098 1.99429 0 0 1 0 0 1.05263 0 0 1.10526 0 0 1.15789 0 0 1.21053 0 0 1.26316 0 0 1.31579 0 0 1.36842 0 0 1.42105 0 0 1.47368 0 0 1.52632 0 0 1.57895 0 0 1.63158 0 0 1.68421 0 0 1.73684 0 0 1.78947 0 0 1.84211 0 0 1.89474 0 0 1.94737 0 0 2 0 
</DataArray>
</Points> 
</Piece> 
</StructuredGrid> 
</VTKFile> 
