<?xml version="1.0"?> 
<VTKFile type="StructuredGrid" version="0.1"> 
<StructuredGrid WholeExtent="0 14 0 14 0 14"> 
<Piece Extent="0 14 0 14 0 14"> 
<PointData Vectors="u">
<DataArray type="Float32" Name="u" format="ascii" NumberOfComponents="3"> 
-0.00958471 0.939399 0 -0.010407 0.981798 0 -0.0112292 1.01733 0 -0.0120514 1.04721 0 -0.0128737 1.07237 0 -0.0136633 1.09333 0 -0.0143876 1.10774 0 -0.0151119 1.11568 0 -0.0158362 1.11802 0 -0.0165605 1.11549 0 -0.0172138 1.10804 0 -0.0178316 1.09412 0 -0.0184495 1.07435 0 -0.0190673 1.04936 0 -0.0196851 1.01971 0 0.110991 0.84165 0.108086 0.117574 0.879732 0.124091 0.124782 0.911769 0.141212 0.132505 0.938827 0.159447 0.140657 0.961736 0.178796 0.148382 0.980854 0.199261 0.155084 0.994016 0.220835 0.16238 1.00144 0.243518 0.170187 1.00392 0.26731 0.178441 1.00208 0.292211 0.185477 0.995701 0.31822 0.192274 0.983475 0.345337 0.199612 0.966017 0.373561 0.207432 0.943907 0.402892 0.215681 0.917645 0.433331 0.224407 0.787118 0.206511 0.237712 0.823188 0.237115 0.252137 0.85401 0.269846 0.267482 0.880511 0.304702 0.283596 0.90341 0.341684 0.2988 0.92275 0.380791 0.311889 0.936355 0.422019 0.326047 0.94495 0.465364 0.341127 0.949218 0.510828 0.35701 0.949723 0.55841 0.370334 0.945673 0.608111 0.383053 0.936189 0.659927 0.396755 0.922093 0.71386 0.411332 0.903895 0.769909 0.426689 0.882037 0.828075 0.323778 0.771025 0.295275 0.342768 0.807078 0.339072 0.363246 0.838651 0.385902 0.384949 0.866534 0.435766 0.407672 0.891343 0.488662 0.429014 0.912639 0.544592 0.447208 0.928067 0.603551 0.466834 0.939184 0.665539 0.487695 0.946579 0.730554 0.509632 0.950737 0.798599 0.527688 0.949929 0.869671 0.544718 0.943885 0.943771 0.56308 0.933829 1.0209 0.582626 0.920206 1.10105 0.603229 0.9034 1.18423 0.403311 0.787015 0.374379 0.426661 0.824649 0.429962 0.45175 0.858534 0.489381 0.478269 0.889332 0.552638 0.505982 0.917556 0.619732 0.531883 0.942141 0.690663 0.553725 0.960391 0.765432 0.577255 0.974999 0.844041 0.602243 0.986462 0.926489 0.628499 0.99519 1.01278 0.649646 0.998136 1.1029 0.669336 0.995825 1.19687 0.690617 0.99008 1.29467 0.713313 0.981284 1.39632 0.737272 0.969763 1.5018 0.48164 0.786648 0.442744 0.508837 0.825213 0.508542 0.537714 0.861038 0.578867 0.567973 0.894607 0.653719 0.599385 0.926295 0.733098 0.628519 0.954269 0.817003 0.652686 0.97549 0.905446 0.678495 0.994029 0.998428 0.705724 1.01025 1.09595 0.734188 1.02446 1.19801 0.756366 1.03196 1.30461 0.776485 1.03435 1.41575 0.798169 1.03418 1.53144 0.821243 1.03174 1.65167 0.84556 1.02727 1.77644 0.579465 0.720397 0.486351 0.610928 0.756941 0.558671 0.643376 0.792235 0.635957 0.676633 0.826501 0.718208 0.710566 0.85991 0.805425 0.741691 0.889862 0.897609 0.766959 0.913208 0.994774 0.793189 0.935331 1.09693 0.820251 0.956398 1.20406 0.848036 0.976547 1.31619 0.868672 0.989532 1.4333 0.886368 0.998129 1.5554 0.904981 1.00556 1.68249 0.924409 1.01196 1.81457 0.944564 1.01743 1.95165 0.655771 0.655771 0.500887 0.690178 0.690178 0.575381 0.724585 0.724585 0.654986 0.758992 0.758992 0.739704 0.793399 0.793399 0.829534 0.824624 0.824624 0.924477 0.849488 0.849488 1.02455 0.874351 0.874351 1.12976 0.899214 0.899214 1.2401 0.924078 0.924078 1.35558 0.941556 0.941556 1.47619 0.955341 0.955341 1.60195 0.969126 0.969126 1.73284 0.982911 0.982911 1.86888 0.996696 0.996696 2.01005 0.720397 0.579465 0.486351 0.756941 0.610928 0.558671 0.792235 0.643376 0.635957 0.826501 0.676633 0.718208 0.85991 0.710566 0.805425 0.889862 0.741691 0.897609 0.913208 0.766959 0.994774 0.935331 0.793189 1.09693 0.956398 0.820251 1.20406 0.976547 0.848036 1.31619 0.989532 0.868672 1.4333 0.998129 0.886368 1.5554 1.00556 0.904981 1.68249 1.01196 0.924409 1.81457 1.01743 0.944564 1.95165 0.786648 0.48164 0.442744 0.825213 0.508837 0.508542 0.861038 0.537714 0.578867 0.894607 0.567973 0.653719 0.926295 0.599385 0.733098 0.954269 0.628519 0.817003 0.97549 0.652686 0.905446 0.994029 0.678495 0.998428 1.01025 0.705724 1.09595 1.02446 0.734188 1.19801 1.03196 0.756366 1.30461 1.03435 0.776485 1.41575 1.03418 0.798169 1.53144 1.03174 0.821243 1.65167 1.02727 0.84556 1.77644 0.787015 0.403311 0.374379 0.824649 0.426661 0.429962 0.858534 0.45175 0.489381 0.889332 0.478269 0.552638 0.917556 0.505982 0.619732 0.942141 0.531883 0.690663 0.960391 0.553725 0.765432 0.974999 0.577255 0.844041 0.986462 0.602243 0.926489 0.99519 0.628499 1.01278 0.998136 0.649646 1.1029 0.995825 0.669336 1.19687 0.99008 0.690617 1.29467 0.981284 0.713313 1.39632 0.969763 0.737272 1.5018 0.771025 0.323778 0.295275 0.807078 0.342768 0.339072 0.838651 0.363246 0.385902 0.866534 0.384949 0.435766 0.891343 0.407672 0.488662 0.912639 0.429014 0.544592 0.928067 0.447208 0.603551 0.939184 0.466834 0.665539 0.946579 0.487695 0.730554 0.950737 0.509632 0.798599 0.949929 0.527688 0.869671 0.943885 0.544718 0.943771 0.933829 0.56308 1.0209 0.920206 0.582626 1.10105 0.9034 0.603229 1.18423 0.787118 0.224407 0.206511 0.823188 0.237712 0.237115 0.85401 0.252137 0.269846 0.880511 0.267482 0.304702 0.90341 0.283596 0.341684 0.92275 0.2988 0.380791 0.936355 0.311889 0.422019 0.94495 0.326047 0.465364 0.949218 0.341127 0.510828 0.949723 0.35701 0.55841 0.945673 0.370334 0.608111 0.936189 0.383053 0.659927 0.922093 0.396755 0.71386 0.903895 0.411332 0.769909 0.882037 0.426689 0.828075 0.84165 0.110991 0.108086 0.879732 0.117574 0.124091 0.911769 0.124782 0.141212 0.938827 0.132505 0.159447 0.961736 0.140657 0.178796 0.980854 0.148382 0.199261 0.994016 0.155084 0.220835 1.00144 0.16238 0.243518 1.00392 0.170187 0.26731 1.00208 0.178441 0.292211 0.995701 0.185477 0.31822 0.983475 0.192274 0.345337 0.966017 0.199612 0.373561 0.943907 0.207432 0.402892 0.917645 0.215681 0.433331 0.939399 -0.00958471 0 0.981798 -0.010407 0 1.01733 -0.0112292 0 1.04721 -0.0120514 0 1.07237 -0.0128737 0 1.09333 -0.0136633 0 1.10774 -0.0143876 0 1.11568 -0.0151119 0 1.11802 -0.0158362 0 1.11549 -0.0165605 0 1.10804 -0.0172138 0 1.09412 -0.0178316 0 1.07435 -0.0184495 0 1.04936 -0.0190673 0 1.01971 -0.0196851 0 -0.00404701 0.938808 0 -0.00439419 0.981239 0 -0.00474137 1.01683 0 -0.00508855 1.0468 0 -0.00543573 1.07207 0 -0.00576913 1.09316 0 -0.00607495 1.10768 0 -0.00638078 1.1157 0 -0.00668661 1.11812 0 -0.00699244 1.11565 0 -0.00726829 1.10825 0 -0.00752916 1.09445 0 -0.00779003 1.07483 0 -0.0080509 1.05004 0 -0.00831177 1.02064 0 0.113279 0.841468 0.108039 0.120049 0.879561 0.12406 0.12744 0.911646 0.141192 0.135344 0.938783 0.159436 0.143674 0.961798 0.178791 0.151573 0.981041 0.199256 0.158448 0.994316 0.220831 0.165918 1.00184 0.243516 0.173902 1.00439 0.267309 0.182333 1.00262 0.292212 0.18954 0.996304 0.318224 0.196501 0.984173 0.345347 0.203999 0.966839 0.37358 0.211977 0.94488 0.402923 0.220381 0.918792 0.433376 0.224513 0.786878 0.206442 0.237821 0.822901 0.23707 0.252238 0.853721 0.269818 0.267569 0.880254 0.304686 0.283662 0.903217 0.341675 0.298851 0.922644 0.380785 0.311947 0.936333 0.422013 0.326114 0.944996 0.465361 0.341208 0.949318 0.510827 0.357106 0.949866 0.558412 0.370461 0.945857 0.608117 0.383214 0.936428 0.659942 0.396948 0.922399 0.713887 0.411554 0.904281 0.769954 0.426938 0.882511 0.828141 0.322795 0.770586 0.295211 0.341707 0.806527 0.33903 0.36209 0.838036 0.385876 0.383685 0.865896 0.435751 0.40629 0.890714 0.488654 0.42752 0.91205 0.544586 0.445637 0.927523 0.603546 0.465188 0.938673 0.665535 0.48598 0.946088 0.730553 0.50785 0.950256 0.7986 0.525864 0.949458 0.869677 0.542864 0.943424 0.943784 0.561197 0.933374 1.02092 0.580715 0.919756 1.10109 0.601292 0.902951 1.18429 0.402282 0.786575 0.374345 0.425573 0.824055 0.429939 0.450578 0.857837 0.489368 0.476994 0.888574 0.55263 0.504586 0.916774 0.619727 0.530369 0.94137 0.690659 0.552126 0.959641 0.765429 0.575576 0.97426 0.844039 0.600488 0.985723 0.926488 0.626672 0.994444 1.01278 0.647769 0.997381 1.1029 0.667428 0.995046 1.19687 0.688685 0.989261 1.29469 0.711365 0.98041 1.39634 0.735313 0.96882 1.50184 0.481435 0.786647 0.442763 0.508656 0.825089 0.508555 0.537529 0.860836 0.578875 0.567762 0.894363 0.653723 0.599129 0.926041 0.7331 0.628214 0.954035 0.817005 0.652353 0.975286 0.905447 0.678139 0.993847 0.998428 0.70535 1.01009 1.09595 0.733798 1.02431 1.19801 0.755972 1.03181 1.30461 0.776103 1.03418 1.41575 0.797811 1.03397 1.53143 0.820922 1.03147 1.65166 0.845284 1.02693 1.77642 0.579906 0.720811 0.486408 0.611421 0.757321 0.558709 0.643903 0.792603 0.63598 0.677183 0.826872 0.718221 0.711126 0.860299 0.805432 0.74226 0.890284 0.897614 0.767549 0.913672 0.994778 0.793803 0.935834 1.09693 0.820892 0.956938 1.20406 0.848706 0.97712 1.31618 0.869371 0.99013 1.43329 0.887101 0.99874 1.55539 0.905755 1.00618 1.68247 0.925232 1.01257 1.81454 0.945442 1.01803 1.9516 0.65638 0.65638 0.500957 0.690816 0.690816 0.575427 0.725252 0.725252 0.655015 0.759687 0.759687 0.73972 0.794123 0.794123 0.829542 0.825382 0.825382 0.924483 0.850288 0.850288 1.02455 0.875194 0.875194 1.12976 0.9001 0.9001 1.2401 0.925006 0.925006 1.35558 0.94252 0.94252 1.47619 0.956338 0.956338 1.60193 0.970156 0.970156 1.73281 0.983974 0.983974 1.86883 0.997792 0.997792 2.00999 0.720811 0.579906 0.486408 0.757321 0.611421 0.558709 0.792603 0.643903 0.63598 0.826872 0.677183 0.718221 0.860299 0.711126 0.805432 0.890284 0.74226 0.897614 0.913672 0.767549 0.994778 0.935834 0.793803 1.09693 0.956938 0.820892 1.20406 0.97712 0.848706 1.31618 0.99013 0.869371 1.43329 0.99874 0.887101 1.55539 1.00618 0.905755 1.68247 1.01257 0.925232 1.81454 1.01803 0.945442 1.9516 0.786647 0.481435 0.442763 0.825089 0.508656 0.508555 0.860836 0.537529 0.578875 0.894363 0.567762 0.653723 0.926041 0.599129 0.7331 0.954035 0.628214 0.817005 0.975286 0.652353 0.905447 0.993847 0.678139 0.998428 1.01009 0.70535 1.09595 1.02431 0.733798 1.19801 1.03181 0.755972 1.30461 1.03418 0.776103 1.41575 1.03397 0.797811 1.53143 1.03147 0.820922 1.65166 1.02693 0.845284 1.77642 0.786575 0.402282 0.374345 0.824055 0.425573 0.429939 0.857837 0.450578 0.489368 0.888574 0.476994 0.55263 0.916774 0.504586 0.619727 0.94137 0.530369 0.690659 0.959641 0.552126 0.765429 0.97426 0.575576 0.844039 0.985723 0.600488 0.926488 0.994444 0.626672 1.01278 0.997381 0.647769 1.1029 0.995046 0.667428 1.19687 0.989261 0.688685 1.29469 0.98041 0.711365 1.39634 0.96882 0.735313 1.50184 0.770586 0.322795 0.295211 0.806527 0.341707 0.33903 0.838036 0.36209 0.385876 0.865896 0.383685 0.435751 0.890714 0.40629 0.488654 0.91205 0.42752 0.544586 0.927523 0.445637 0.603546 0.938673 0.465188 0.665535 0.946088 0.48598 0.730553 0.950256 0.50785 0.7986 0.949458 0.525864 0.869677 0.943424 0.542864 0.943784 0.933374 0.561197 1.02092 0.919756 0.580715 1.10109 0.902951 0.601292 1.18429 0.786878 0.224513 0.206442 0.822901 0.237821 0.23707 0.853721 0.252238 0.269818 0.880254 0.267569 0.304686 0.903217 0.283662 0.341675 0.922644 0.298851 0.380785 0.936333 0.311947 0.422013 0.944996 0.326114 0.465361 0.949318 0.341208 0.510827 0.949866 0.357106 0.558412 0.945857 0.370461 0.608117 0.936428 0.383214 0.659942 0.922399 0.396948 0.713887 0.904281 0.411554 0.769954 0.882511 0.426938 0.828141 0.841468 0.113279 0.108039 0.879561 0.120049 0.12406 0.911646 0.12744 0.141192 0.938783 0.135344 0.159436 0.961798 0.143674 0.178791 0.981041 0.151573 0.199256 0.994316 0.158448 0.220831 1.00184 0.165918 0.243516 1.00439 0.173902 0.267309 1.00262 0.182333 0.292212 0.996304 0.18954 0.318224 0.984173 0.196501 0.345347 0.966839 0.203999 0.37358 0.94488 0.211977 0.402923 0.918792 0.220381 0.433376 0.938808 -0.00404701 0 0.981239 -0.00439419 0 1.01683 -0.00474137 0 1.0468 -0.00508855 0 1.07207 -0.00543573 0 1.09316 -0.00576913 0 1.10768 -0.00607495 0 1.1157 -0.00638078 0 1.11812 -0.00668661 0 1.11565 -0.00699244 0 1.10825 -0.00726829 0 1.09445 -0.00752916 0 1.07483 -0.00779003 0 1.05004 -0.0080509 0 1.02064 -0.00831177 0 -0.000298783 0.938332 0 -0.000324415 0.980789 0 -0.000350047 1.01643 0 -0.000375678 1.04647 0 -0.00040131 1.07183 0 -0.000425924 1.09301 0 -0.000448503 1.10762 0 -0.000471082 1.11572 0 -0.00049366 1.1182 0 -0.000516239 1.11578 0 -0.000536605 1.10843 0 -0.000555864 1.09472 0 -0.000575124 1.07522 0 -0.000594383 1.05058 0 -0.000613642 1.02135 0 0.114828 0.841285 0.107991 0.121721 0.879388 0.124029 0.129232 0.911511 0.141173 0.137253 0.93871 0.159425 0.145698 0.961805 0.178785 0.153711 0.981143 0.199252 0.160703 0.994506 0.220828 0.16829 1.0021 0.243513 0.176393 1.00472 0.267308 0.184944 1.00301 0.292213 0.192268 0.996743 0.318229 0.199342 0.984685 0.345357 0.206953 0.967443 0.373598 0.21504 0.945594 0.402953 0.223553 0.919631 0.433421 0.224586 0.786671 0.206374 0.237889 0.822663 0.237024 0.252295 0.853483 0.26979 0.267609 0.880043 0.304671 0.28368 0.903055 0.341667 0.298853 0.922549 0.380778 0.311952 0.936304 0.422008 0.326126 0.945021 0.465357 0.341227 0.949389 0.510826 0.357134 0.949974 0.558414 0.370512 0.946 0.608123 0.383293 0.936616 0.659956 0.397054 0.922639 0.713914 0.411685 0.904579 0.769998 0.427093 0.882874 0.828206 0.322131 0.770258 0.295147 0.340984 0.806121 0.338987 0.361296 0.837587 0.38585 0.382811 0.865433 0.435737 0.405327 0.890261 0.488646 0.426476 0.91163 0.544579 0.444538 0.927141 0.603541 0.464039 0.938318 0.665532 0.484782 0.945752 0.730552 0.506606 0.949933 0.798601 0.524594 0.949148 0.869682 0.54158 0.943125 0.943798 0.559899 0.933084 1.02095 0.579404 0.919471 1.10113 0.599968 0.902669 1.18436 0.401588 0.786261 0.374311 0.424834 0.823631 0.429916 0.449777 0.857342 0.489354 0.476117 0.888039 0.552623 0.503621 0.916224 0.619723 0.52932 0.94083 0.690656 0.551017 0.959121 0.765427 0.574412 0.973751 0.844037 0.599272 0.985219 0.926487 0.625407 0.993937 1.01278 0.646474 0.996872 1.10291 0.666115 0.994524 1.19688 0.687361 0.988713 1.2947 0.710034 0.979825 1.39636 0.733981 0.968188 1.50187 0.481299 0.78664 0.442781 0.508536 0.824995 0.508567 0.537405 0.860688 0.578882 0.567617 0.894187 0.653727 0.59895 0.925859 0.733102 0.627998 0.953868 0.817006 0.652117 0.975144 0.905448 0.677888 0.993723 0.998429 0.705085 1.00997 1.09595 0.733524 1.0242 1.19801 0.755696 1.03171 1.30461 0.775837 1.03406 1.41575 0.797565 1.03383 1.53143 0.820703 1.03129 1.65165 0.8451 1.0267 1.77641 0.580209 0.721091 0.486466 0.611759 0.757577 0.558747 0.644265 0.792849 0.636003 0.677558 0.827122 0.718233 0.711508 0.860561 0.805439 0.742646 0.89057 0.897619 0.767949 0.913989 0.994782 0.794221 0.936179 1.09693 0.821328 0.957308 1.20406 0.849162 0.977514 1.31618 0.869846 0.990541 1.43329 0.887599 0.99916 1.55537 0.906282 1.0066 1.68245 0.925792 1.01299 1.81451 0.946039 1.01844 1.95155 0.656797 0.656797 0.501027 0.691252 0.691252 0.575474 0.725707 0.725707 0.655043 0.760162 0.760162 0.739736 0.794617 0.794617 0.829551 0.825899 0.825899 0.92449 0.850835 0.850835 1.02456 0.87577 0.87577 1.12976 0.900706 0.900706 1.2401 0.925642 0.925642 1.35557 0.94318 0.94318 1.47618 0.957019 0.957019 1.60192 0.970859 0.970859 1.73279 0.984698 0.984698 1.86879 0.998538 0.998538 2.00993 0.721091 0.580209 0.486466 0.757577 0.611759 0.558747 0.792849 0.644265 0.636003 0.827122 0.677558 0.718233 0.860561 0.711508 0.805439 0.89057 0.742646 0.897619 0.913989 0.767949 0.994782 0.936179 0.794221 1.09693 0.957308 0.821328 1.20406 0.977514 0.849162 1.31618 0.990541 0.869846 1.43329 0.99916 0.887599 1.55537 1.0066 0.906282 1.68245 1.01299 0.925792 1.81451 1.01844 0.946039 1.95155 0.78664 0.481299 0.442781 0.824995 0.508536 0.508567 0.860688 0.537405 0.578882 0.894187 0.567617 0.653727 0.925859 0.59895 0.733102 0.953868 0.627998 0.817006 0.975144 0.652117 0.905448 0.993723 0.677888 0.998429 1.00997 0.705085 1.09595 1.0242 0.733524 1.19801 1.03171 0.755696 1.30461 1.03406 0.775837 1.41575 1.03383 0.797565 1.53143 1.03129 0.820703 1.65165 1.0267 0.8451 1.77641 0.786261 0.401588 0.374311 0.823631 0.424834 0.429916 0.857342 0.449777 0.489354 0.888039 0.476117 0.552623 0.916224 0.503621 0.619723 0.94083 0.52932 0.690656 0.959121 0.551017 0.765427 0.973751 0.574412 0.844037 0.985219 0.599272 0.926487 0.993937 0.625407 1.01278 0.996872 0.646474 1.10291 0.994524 0.666115 1.19688 0.988713 0.687361 1.2947 0.979825 0.710034 1.39636 0.968188 0.733981 1.50187 0.770258 0.322131 0.295147 0.806121 0.340984 0.338987 0.837587 0.361296 0.38585 0.865433 0.382811 0.435737 0.890261 0.405327 0.488646 0.91163 0.426476 0.544579 0.927141 0.444538 0.603541 0.938318 0.464039 0.665532 0.945752 0.484782 0.730552 0.949933 0.506606 0.798601 0.949148 0.524594 0.869682 0.943125 0.54158 0.943798 0.933084 0.559899 1.02095 0.919471 0.579404 1.10113 0.902669 0.599968 1.18436 0.786671 0.224586 0.206374 0.822663 0.237889 0.237024 0.853483 0.252295 0.26979 0.880043 0.267609 0.304671 0.903055 0.28368 0.341667 0.922549 0.298853 0.380778 0.936304 0.311952 0.422008 0.945021 0.326126 0.465357 0.949389 0.341227 0.510826 0.949974 0.357134 0.558414 0.946 0.370512 0.608123 0.936616 0.383293 0.659956 0.922639 0.397054 0.713914 0.904579 0.411685 0.769998 0.882874 0.427093 0.828206 0.841285 0.114828 0.107991 0.879388 0.121721 0.124029 0.911511 0.129232 0.141173 0.93871 0.137253 0.159425 0.961805 0.145698 0.178785 0.981143 0.153711 0.199252 0.994506 0.160703 0.220828 1.0021 0.16829 0.243513 1.00472 0.176393 0.267308 1.00301 0.184944 0.292213 0.996743 0.192268 0.318229 0.984685 0.199342 0.345357 0.967443 0.206953 0.373598 0.945594 0.21504 0.402953 0.919631 0.223553 0.433421 0.938332 -0.000298783 0 0.980789 -0.000324415 0 1.01643 -0.000350047 0 1.04647 -0.000375678 0 1.07183 -0.00040131 0 1.09301 -0.000425924 0 1.10762 -0.000448503 0 1.11572 -0.000471082 0 1.1182 -0.00049366 0 1.11578 -0.000516239 0 1.10843 -0.000536605 0 1.09472 -0.000555864 0 1.07522 -0.000575124 0 1.05058 -0.000594383 0 1.02135 -0.000613642 0 0.00165997 0.93797 0 0.00180237 0.980449 0 0.00194477 1.01613 0 0.00208718 1.04622 0 0.00222958 1.07164 0 0.00236633 1.09289 0 0.00249177 1.10757 0 0.00261721 1.11573 0 0.00274266 1.11826 0 0.0028681 1.11589 0 0.00298125 1.10859 0 0.00308825 1.09494 0 0.00319525 1.07552 0 0.00330225 1.05097 0 0.00340925 1.02184 0 0.115638 0.841101 0.107944 0.122589 0.879213 0.123997 0.130156 0.911364 0.141154 0.138232 0.938606 0.159415 0.14673 0.961757 0.178779 0.154798 0.981161 0.199247 0.161849 0.994586 0.220824 0.169497 1.00224 0.243511 0.17766 1.00491 0.267308 0.186272 1.00324 0.292214 0.19366 0.997018 0.318233 0.200799 0.985012 0.345367 0.208472 0.96783 0.373617 0.216622 0.946049 0.402983 0.225196 0.92016 0.433466 0.224625 0.786496 0.206305 0.237917 0.822472 0.236979 0.252307 0.853296 0.269762 0.267602 0.879878 0.304655 0.283651 0.902924 0.341658 0.298807 0.922466 0.380771 0.311906 0.936268 0.422002 0.326081 0.945026 0.465353 0.341184 0.94943 0.510824 0.357095 0.950046 0.558415 0.370489 0.946102 0.608128 0.383292 0.936753 0.65997 0.397073 0.922812 0.713942 0.411725 0.904789 0.770042 0.427154 0.883123 0.828272 0.321787 0.77004 0.295083 0.340599 0.805859 0.338944 0.360865 0.837303 0.385824 0.382326 0.865145 0.435722 0.404785 0.889984 0.488638 0.425882 0.911378 0.544573 0.443914 0.926919 0.603536 0.463386 0.938119 0.665528 0.484103 0.945573 0.73055 0.505901 0.949767 0.798603 0.52388 0.948997 0.869687 0.540865 0.942988 0.943811 0.559185 0.932957 1.02097 0.578692 0.919352 1.10118 0.599259 0.902555 1.18442 0.401228 0.78607 0.374276 0.424445 0.823379 0.429894 0.449348 0.85705 0.48934 0.47564 0.887726 0.552615 0.503088 0.915906 0.619719 0.528735 0.940523 0.690653 0.5504 0.958831 0.765424 0.573764 0.973473 0.844035 0.598596 0.984948 0.926486 0.624705 0.99367 1.01278 0.645759 0.996608 1.10291 0.665398 0.994257 1.19689 0.686645 0.988436 1.29471 0.709323 0.979528 1.39639 0.733277 0.967866 1.50191 0.481233 0.786628 0.4428 0.508477 0.824933 0.508579 0.53734 0.860594 0.57889 0.567538 0.894078 0.653731 0.598847 0.925748 0.733104 0.627872 0.95377 0.817008 0.651979 0.975063 0.905449 0.677741 0.993655 0.998429 0.704932 1.00992 1.09595 0.733365 1.02415 1.19801 0.755539 1.03166 1.3046 0.775688 1.03401 1.41574 0.79743 1.03376 1.53142 0.820587 1.0312 1.65164 0.845007 1.02657 1.7764 0.580375 0.721237 0.486523 0.611944 0.757709 0.558785 0.644461 0.792975 0.636026 0.677761 0.827249 0.718246 0.711712 0.860696 0.805445 0.742851 0.89072 0.897624 0.768161 0.914158 0.994786 0.794441 0.936365 1.09693 0.821559 0.957509 1.20406 0.849404 0.977729 1.31618 0.870098 0.990765 1.43328 0.887863 0.999387 1.55536 0.906561 1.00683 1.68243 0.926088 1.01321 1.81447 0.946357 1.01865 1.9515 0.657019 0.657019 0.501097 0.691485 0.691485 0.57552 0.72595 0.72595 0.655071 0.760415 0.760415 0.739751 0.794881 0.794881 0.829559 0.826175 0.826175 0.924496 0.851127 0.851127 1.02456 0.87608 0.87608 1.12977 0.901032 0.901032 1.2401 0.925984 0.925984 1.35557 0.943534 0.943534 1.47617 0.957384 0.957384 1.6019 0.971233 0.971233 1.73276 0.985082 0.985082 1.86875 0.998932 0.998932 2.00987 0.721237 0.580375 0.486523 0.757709 0.611944 0.558785 0.792975 0.644461 0.636026 0.827249 0.677761 0.718246 0.860696 0.711712 0.805445 0.89072 0.742851 0.897624 0.914158 0.768161 0.994786 0.936365 0.794441 1.09693 0.957509 0.821559 1.20406 0.977729 0.849404 1.31618 0.990765 0.870098 1.43328 0.999387 0.887863 1.55536 1.00683 0.906561 1.68243 1.01321 0.926088 1.81447 1.01865 0.946357 1.9515 0.786628 0.481233 0.4428 0.824933 0.508477 0.508579 0.860594 0.53734 0.57889 0.894078 0.567538 0.653731 0.925748 0.598847 0.733104 0.95377 0.627872 0.817008 0.975063 0.651979 0.905449 0.993655 0.677741 0.998429 1.00992 0.704932 1.09595 1.02415 0.733365 1.19801 1.03166 0.755539 1.3046 1.03401 0.775688 1.41574 1.03376 0.79743 1.53142 1.0312 0.820587 1.65164 1.02657 0.845007 1.7764 0.78607 0.401228 0.374276 0.823379 0.424445 0.429894 0.85705 0.449348 0.48934 0.887726 0.47564 0.552615 0.915906 0.503088 0.619719 0.940523 0.528735 0.690653 0.958831 0.5504 0.765424 0.973473 0.573764 0.844035 0.984948 0.598596 0.926486 0.99367 0.624705 1.01278 0.996608 0.645759 1.10291 0.994257 0.665398 1.19689 0.988436 0.686645 1.29471 0.979528 0.709323 1.39639 0.967866 0.733277 1.50191 0.77004 0.321787 0.295083 0.805859 0.340599 0.338944 0.837303 0.360865 0.385824 0.865145 0.382326 0.435722 0.889984 0.404785 0.488638 0.911378 0.425882 0.544573 0.926919 0.443914 0.603536 0.938119 0.463386 0.665528 0.945573 0.484103 0.73055 0.949767 0.505901 0.798603 0.948997 0.52388 0.869687 0.942988 0.540865 0.943811 0.932957 0.559185 1.02097 0.919352 0.578692 1.10118 0.902555 0.599259 1.18442 0.786496 0.224625 0.206305 0.822472 0.237917 0.236979 0.853296 0.252307 0.269762 0.879878 0.267602 0.304655 0.902924 0.283651 0.341658 0.922466 0.298807 0.380771 0.936268 0.311906 0.422002 0.945026 0.326081 0.465353 0.94943 0.341184 0.510824 0.950046 0.357095 0.558415 0.946102 0.370489 0.608128 0.936753 0.383292 0.65997 0.922812 0.397073 0.713942 0.904789 0.411725 0.770042 0.883123 0.427154 0.828272 0.841101 0.115638 0.107944 0.879213 0.122589 0.123997 0.911364 0.130156 0.141154 0.938606 0.138232 0.159415 0.961757 0.14673 0.178779 0.981161 0.154798 0.199247 0.994586 0.161849 0.220824 1.00224 0.169497 0.243511 1.00491 0.17766 0.267308 1.00324 0.186272 0.292214 0.997018 0.19366 0.318233 0.985012 0.200799 0.345367 0.96783 0.208472 0.373617 0.946049 0.216622 0.402983 0.92016 0.225196 0.433466 0.93797 0.00165997 0 0.980449 0.00180237 0 1.01613 0.00194477 0 1.04622 0.00208718 0 1.07164 0.00222958 0 1.09289 0.00236633 0 1.10757 0.00249177 0 1.11573 0.00261721 0 1.11826 0.00274266 0 1.11589 0.0028681 0 1.10859 0.00298125 0 1.09494 0.00308825 0 1.07552 0.00319525 0 1.05097 0.00330225 0 1.02184 0.00340925 0 0.00182924 0.937723 0 0.00198617 0.980219 0 0.00214309 1.01593 0 0.00230002 1.04605 0 0.00245694 1.07151 0 0.00260764 1.0928 0 0.00274587 1.10753 0 0.0028841 1.11573 0 0.00302234 1.1183 0 0.00316057 1.11597 0 0.00328526 1.10872 0 0.00340317 1.09511 0 0.00352108 1.07573 0 0.00363899 1.05121 0 0.0037569 1.02212 0 0.11571 0.840915 0.107897 0.122654 0.879037 0.123966 0.130214 0.911206 0.141135 0.138281 0.938473 0.159404 0.14677 0.961655 0.178773 0.154833 0.981095 0.199243 0.161887 0.994557 0.22082 0.169538 1.00225 0.243508 0.177704 1.00495 0.267307 0.186319 1.00332 0.292216 0.193717 0.997127 0.318237 0.20087 0.985153 0.345377 0.208558 0.968 0.373636 0.216722 0.946245 0.403014 0.225311 0.92038 0.433511 0.224632 0.786354 0.206237 0.237905 0.82233 0.236933 0.252275 0.853162 0.269734 0.267548 0.879758 0.30464 0.283574 0.902825 0.34165 0.298713 0.922393 0.380765 0.311809 0.936224 0.421997 0.32598 0.945011 0.46535 0.341081 0.94944 0.510823 0.356989 0.950082 0.558417 0.370392 0.946164 0.608134 0.38321 0.936838 0.659985 0.397007 0.922917 0.713969 0.411675 0.904912 0.770087 0.427121 0.883261 0.828338 0.321761 0.769934 0.295018 0.340553 0.805743 0.338902 0.360795 0.837185 0.385798 0.382231 0.865032 0.435708 0.404662 0.889882 0.48863 0.425738 0.911295 0.544567 0.443763 0.926857 0.603531 0.463229 0.938077 0.665525 0.483941 0.945549 0.730549 0.505735 0.949759 0.798604 0.523721 0.949007 0.869693 0.54072 0.943014 0.943824 0.559056 0.932995 1.021 0.578579 0.919399 1.10122 0.599163 0.902607 1.18448 0.401202 0.786005 0.374242 0.424405 0.823297 0.429871 0.449291 0.85696 0.489326 0.475562 0.887635 0.552607 0.502987 0.915819 0.619715 0.528614 0.940447 0.690649 0.550273 0.958771 0.765421 0.573632 0.973426 0.844033 0.59846 0.984912 0.926485 0.624566 0.993643 1.01278 0.645626 0.996591 1.10291 0.665276 0.994247 1.1969 0.686537 0.988429 1.29473 0.709229 0.979521 1.39641 0.7332 0.967856 1.50194 0.481237 0.78661 0.442819 0.508478 0.824901 0.508592 0.537335 0.860555 0.578897 0.567524 0.894037 0.653736 0.598821 0.92571 0.733106 0.627835 0.95374 0.817009 0.651939 0.975043 0.90545 0.677699 0.993645 0.99843 0.704889 1.00991 1.09595 0.733323 1.02415 1.198 0.7555 1.03167 1.3046 0.775655 1.03401 1.41574 0.797405 1.03376 1.53141 0.820573 1.03119 1.65163 0.845006 1.02656 1.77638 0.580403 0.721248 0.48658 0.611974 0.757715 0.558823 0.644492 0.79298 0.636049 0.67779 0.827254 0.718259 0.711737 0.860704 0.805452 0.742873 0.890733 0.897629 0.768184 0.914178 0.99479 0.794465 0.936392 1.09693 0.821584 0.957541 1.20406 0.849432 0.977765 1.31618 0.870126 0.990802 1.43327 0.887892 0.999423 1.55535 0.906592 1.00686 1.6824 0.926122 1.01324 1.81444 0.946394 1.01868 1.95145 0.657048 0.657048 0.501167 0.691515 0.691515 0.575567 0.725981 0.725981 0.6551 0.760448 0.760448 0.739767 0.794914 0.794914 0.829568 0.826211 0.826211 0.924502 0.851167 0.851167 1.02457 0.876122 0.876122 1.12977 0.901078 0.901078 1.2401 0.926034 0.926034 1.35557 0.943584 0.943584 1.47616 0.957432 0.957432 1.60189 0.97128 0.97128 1.73273 0.985127 0.985127 1.86871 0.998975 0.998975 2.00981 0.721248 0.580403 0.48658 0.757715 0.611974 0.558823 0.79298 0.644492 0.636049 0.827254 0.67779 0.718259 0.860704 0.711737 0.805452 0.890733 0.742873 0.897629 0.914178 0.768184 0.99479 0.936392 0.794465 1.09693 0.957541 0.821584 1.20406 0.977765 0.849432 1.31618 0.990802 0.870126 1.43327 0.999423 0.887892 1.55535 1.00686 0.906592 1.6824 1.01324 0.926122 1.81444 1.01868 0.946394 1.95145 0.78661 0.481237 0.442819 0.824901 0.508478 0.508592 0.860555 0.537335 0.578897 0.894037 0.567524 0.653736 0.92571 0.598821 0.733106 0.95374 0.627835 0.817009 0.975043 0.651939 0.90545 0.993645 0.677699 0.99843 1.00991 0.704889 1.09595 1.02415 0.733323 1.198 1.03167 0.7555 1.3046 1.03401 0.775655 1.41574 1.03376 0.797405 1.53141 1.03119 0.820573 1.65163 1.02656 0.845006 1.77638 0.786005 0.401202 0.374242 0.823297 0.424405 0.429871 0.85696 0.449291 0.489326 0.887635 0.475562 0.552607 0.915819 0.502987 0.619715 0.940447 0.528614 0.690649 0.958771 0.550273 0.765421 0.973426 0.573632 0.844033 0.984912 0.59846 0.926485 0.993643 0.624566 1.01278 0.996591 0.645626 1.10291 0.994247 0.665276 1.1969 0.988429 0.686537 1.29473 0.979521 0.709229 1.39641 0.967856 0.7332 1.50194 0.769934 0.321761 0.295018 0.805743 0.340553 0.338902 0.837185 0.360795 0.385798 0.865032 0.382231 0.435708 0.889882 0.404662 0.48863 0.911295 0.425738 0.544567 0.926857 0.443763 0.603531 0.938077 0.463229 0.665525 0.945549 0.483941 0.730549 0.949759 0.505735 0.798604 0.949007 0.523721 0.869693 0.943014 0.54072 0.943824 0.932995 0.559056 1.021 0.919399 0.578579 1.10122 0.902607 0.599163 1.18448 0.786354 0.224632 0.206237 0.82233 0.237905 0.236933 0.853162 0.252275 0.269734 0.879758 0.267548 0.30464 0.902825 0.283574 0.34165 0.922393 0.298713 0.380765 0.936224 0.311809 0.421997 0.945011 0.32598 0.46535 0.94944 0.341081 0.510823 0.950082 0.356989 0.558417 0.946164 0.370392 0.608134 0.936838 0.38321 0.659985 0.922917 0.397007 0.713969 0.904912 0.411675 0.770087 0.883261 0.427121 0.828338 0.840915 0.11571 0.107897 0.879037 0.122654 0.123966 0.911206 0.130214 0.141135 0.938473 0.138281 0.159404 0.961655 0.14677 0.178773 0.981095 0.154833 0.199243 0.994557 0.161887 0.22082 1.00225 0.169538 0.243508 1.00495 0.177704 0.267307 1.00332 0.186319 0.292216 0.997127 0.193717 0.318237 0.985153 0.20087 0.345377 0.968 0.208558 0.373636 0.946245 0.216722 0.403014 0.92038 0.225311 0.433511 0.937723 0.00182924 0 0.980219 0.00198617 0 1.01593 0.00214309 0 1.04605 0.00230002 0 1.07151 0.00245694 0 1.0928 0.00260764 0 1.10753 0.00274587 0 1.11573 0.0028841 0 1.1183 0.00302234 0 1.11597 0.00316057 0 1.10872 0.00328526 0 1.09511 0.00340317 0 1.07573 0.00352108 0 1.05121 0.00363899 0 1.02212 0.0037569 0 0.000354133 0.937586 0 0.000384513 0.980095 0 0.000414893 1.01582 0 0.000445273 1.04595 0 0.000475653 1.07143 0 0.000504827 1.09274 0 0.000531589 1.10749 0 0.00055835 1.11572 0 0.000585112 1.11832 0 0.000611873 1.11604 0 0.000636012 1.10882 0 0.000658839 1.09523 0 0.000681666 1.07584 0 0.000704494 1.05132 0 0.000727321 1.0222 0 0.115103 0.840734 0.107868 0.121981 0.878864 0.123946 0.129475 0.911041 0.141122 0.137476 0.938316 0.159396 0.1459 0.961505 0.178768 0.153903 0.980953 0.199239 0.160907 0.994427 0.220817 0.168509 1.00213 0.243507 0.176625 1.00486 0.267307 0.18519 1.00325 0.292218 0.192549 0.997084 0.318242 0.19967 0.98512 0.345386 0.207327 0.967967 0.373651 0.215461 0.946199 0.403036 0.224022 0.920311 0.433542 0.224607 0.786245 0.206194 0.237856 0.822234 0.236903 0.252203 0.853077 0.269715 0.267452 0.879683 0.304628 0.283455 0.902757 0.341642 0.298576 0.922333 0.380759 0.311666 0.936176 0.421993 0.32583 0.944977