<?xml version="1.0"?> 
<VTKFile type="StructuredGrid" version="0.1"> 
<StructuredGrid WholeExtent="0 14 0 14 0 14"> 
<Piece Extent="0 14 0 14 0 14"> 
<PointData Vectors="u">
<DataArray type="Float32" Name="u" format="ascii" NumberOfComponents="3"> 
0 0.67881 0 -0.0712701 0.658727 -4.97947e-15 -0.146068 0.646395 -1.15067e-15 -0.228067 0.627405 3.59625e-16 -0.293392 0.595543 1.04589e-14 -0.35314 0.5612 2.97573e-14 -0.411263 0.518155 1.19301e-15 -0.467889 0.467889 -2.80164e-14 -0.518155 0.411263 1.11512e-15 -0.5612 0.35314 4.10975e-14 -0.595543 0.293392 2.68287e-14 -0.627405 0.228067 1.32306e-14 -0.646395 0.146068 8.66607e-15 -0.658727 0.0712701 1.68781e-15 -0.67881 0 0 0 0.695792 0 -0.0721046 0.675501 -3.32434e-15 -0.148124 0.663781 -3.58376e-15 -0.232222 0.645536 -2.88076e-15 -0.300034 0.614016 -2.24127e-16 -0.362291 0.579434 1.33648e-14 -0.423436 0.535182 6.27265e-15 -0.482873 0.482873 -2.36234e-14 -0.535182 0.423436 -1.0209e-14 -0.579434 0.362291 -1.27532e-14 -0.614016 0.300034 -4.06755e-15 -0.645536 0.232222 1.24363e-15 -0.663781 0.148124 -2.51564e-15 -0.675501 0.0721046 -2.75424e-15 -0.695792 0 0 0 0.714383 0 -0.0734228 0.693733 -2.7505e-15 -0.151059 0.682281 -4.1994e-15 -0.237437 0.664317 -3.32243e-15 -0.307619 0.632689 -6.29254e-15 -0.37215 0.597594 -9.51291e-17 -0.435939 0.552055 6.71558e-15 -0.497858 0.497858 -1.82463e-14 -0.552055 0.435939 -1.36024e-14 -0.597594 0.37215 -3.62657e-14 -0.632689 0.307619 -1.84934e-14 -0.664317 0.237437 -4.45906e-15 -0.682281 0.151059 -7.08899e-15 -0.693733 0.0734228 -4.69302e-15 -0.714383 0 0 0 0.735015 0 -0.0753549 0.713813 -3.25795e-15 -0.155108 0.702198 -2.99759e-15 -0.243998 0.683923 -9.65388e-16 -0.316401 0.651619 -7.74635e-15 -0.382909 0.615661 -1.06227e-14 -0.448864 0.568733 2.52181e-15 -0.512842 0.512842 -1.1885e-14 -0.568733 0.448864 -9.06504e-15 -0.615661 0.382909 -2.94401e-14 -0.651619 0.316401 -1.64487e-14 -0.683923 0.243998 -3.87747e-15 -0.702198 0.155108 -5.05398e-15 -0.713813 0.0753549 -4.12853e-15 -0.735015 0 0 0 0.758293 0 -0.0780824 0.736289 -4.84668e-15 -0.160603 0.723948 2.16754e-17 -0.252303 0.704598 4.19037e-15 -0.326735 0.670878 -4.58553e-15 -0.394832 0.633608 -1.82177e-14 -0.462334 0.585158 -6.30867e-15 -0.527827 0.527827 -4.53961e-15 -0.585158 0.462334 3.40303e-15 -0.633608 0.394832 7.72366e-15 -0.670878 0.326735 2.06639e-15 -0.704598 0.252303 2.98839e-15 -0.723948 0.160603 3.58938e-15 -0.736289 0.0780824 -1.06078e-15 -0.758293 0 0 0 0.785053 0 -0.0812412 0.762122 -7.26908e-15 -0.166959 0.74893 4.59034e-15 -0.261891 0.728331 1.17028e-14 -0.338605 0.692946 2.86079e-15 -0.408571 0.654136 -2.26428e-14 -0.477781 0.603967 -1.9131e-14 -0.544983 0.544983 3.52785e-15 -0.603967 0.477781 2.26806e-14 -0.654136 0.408571 7.17711e-14 -0.692946 0.338605 3.50754e-14 -0.728331 0.261891 1.52885e-14 -0.74893 0.166959 1.80727e-14 -0.762122 0.0812412 4.29084e-15 -0.785053 0 0 0 0.815954 0 -0.0841102 0.792216 -6.26682e-15 -0.172984 0.778822 6.09866e-15 -0.271674 0.75785 1.39692e-14 -0.351664 0.72145 8.93291e-15 -0.424806 0.681313 -1.98126e-14 -0.497228 0.629155 -2.48562e-14 -0.567557 0.567557 7.80998e-15 -0.629155 0.497228 2.94862e-14 -0.681313 0.424806 1.03296e-13 -0.72145 0.351664 4.85868e-14 -0.75785 0.271674 1.84045e-14 -0.778822 0.172984 2.51825e-14 -0.792216 0.0841102 8.15327e-15 -0.815954 0 0 0 0.85248 0 -0.0886704 0.827403 -2.99549e-16 -0.182076 0.812608 2.87918e-15 -0.285146 0.78963 8.23962e-15 -0.368057 0.750665 1.15836e-14 -0.443457 0.708241 -8.24936e-15 -0.517843 0.653802 -1.94728e-14 -0.590131 0.590131 6.67635e-15 -0.653802 0.517843 1.68452e-14 -0.708241 0.443457 8.08091e-14 -0.750665 0.368057 3.03052e-14 -0.78963 0.285146 7.04874e-15 -0.812608 0.182076 2.0139e-14 -0.827403 0.0886704 9.16171e-15 -0.85248 0 0 0 0.897378 0 -0.095748 0.870173 1.06327e-14 -0.195733 0.85219 -5.06809e-15 -0.30411 0.824775 -5.48594e-15 -0.389413 0.780939 1.08127e-14 -0.465702 0.734796 1.20469e-14 -0.540197 0.677642 -2.98102e-15 -0.612705 0.612705 1.26961e-16 -0.677642 0.540197 -1.52424e-14 -0.734796 0.465702 4.3108e-15 -0.780939 0.389413 -1.97695e-14 -0.824775 0.30411 -1.87789e-14 -0.85219 0.195733 2.94232e-15 -0.870173 0.095748 7.31615e-15 -0.897378 0 0 0 0.955534 0 -0.106812 0.924948 2.653e-14 -0.216621 0.90095 -1.77432e-14 -0.331769 0.865249 -2.72075e-14 -0.418629 0.812888 6.62045e-15 -0.493639 0.760763 4.10762e-14 -0.565305 0.700206 2.46192e-14 -0.635279 0.635279 -1.18382e-14 -0.700206 0.565305 -6.67767e-14 -0.760763 0.493639 -1.26199e-13 -0.812888 0.418629 -1.01637e-13 -0.865249 0.331769 -5.90784e-14 -0.90095 0.216621 -2.64077e-14 -0.924948 0.106812 2.6166e-15 -0.955534 0 0 0 1.03294 0 -0.108222 1.00228 4.40386e-14 -0.221957 0.983557 -3.21691e-14 -0.346807 0.954658 -5.14503e-14 -0.446623 0.906527 1.64229e-15 -0.536957 0.854639 7.59575e-14 -0.625839 0.788724 6.14091e-14 -0.712243 0.712243 -2.26051e-14 -0.788724 0.625839 -1.18726e-13 -0.854639 0.536957 -2.72344e-13 -0.906527 0.446623 -1.88997e-13 -0.954658 0.346807 -9.90904e-14 -0.983557 0.221957 -5.77704e-14 -1.00228 0.108222 -1.75182e-15 -1.03294 0 0 0 1.12635 0 -0.102906 1.09794 4.79119e-14 -0.216555 1.09257 -3.48115e-14 -0.353478 1.08127 -5.33242e-14 -0.47466 1.04645 7.86058e-15 -0.592462 0.999175 1.03593e-13 -0.713171 0.92636 9.86645e-14 -0.829839 0.829839 -2.10391e-15 -0.92636 0.713171 -8.4565e-14 -0.999175 0.592462 -2.59653e-13 -1.04645 0.47466 -1.62278e-13 -1.08127 0.353478 -7.17144e-14 -1.09257 0.216555 -4.50436e-14 -1.09794 0.102906 8.69159e-15 -1.12635 0 0 0 1.25428 0 -0.107966 1.22484 3.6278e-14 -0.229971 1.22547 -2.40089e-14 -0.382788 1.22176 -2.97737e-14 -0.523153 1.19074 2.67462e-14 -0.6628 1.14218 1.22375e-13 -0.807662 1.06068 1.35315e-13 -0.947435 0.947435 5.33565e-14 -1.06068 0.807662 4.63274e-14 -1.14218 0.6628 -6.67074e-14 -1.19074 0.523153 -6.80016e-15 -1.22176 0.382788 3.12868e-14 -1.22547 0.229971 1.7432e-14 -1.22484 0.107966 3.57244e-14 -1.25428 0 0 0 1.50746 0 -0.150673 1.46513 9.13699e-15 -0.311662 1.44504 2.38621e-16 -0.494242 1.4126 1.92011e-14 -0.645865 1.35086 5.82992e-14 -0.786953 1.27961 1.32304e-13 -0.928128 1.18296 1.7136e-13 -1.06503 1.06503 1.43776e-13 -1.18296 0.928128 2.73951e-13 -1.27961 0.786953 3.06492e-13 -1.35086 0.645865 2.77435e-13 -1.4126 0.494242 2.09913e-13 -1.44504 0.311662 1.29656e-13 -1.46513 0.150673 7.93467e-14 -1.50746 0 0 0 4.54307 0 -1.02968 4.22428 -3.35111e-14 -1.91006 3.59013 3.79311e-14 -2.43046 2.7217 9.36003e-14 -2.41731 1.86252 1.0252e-13 -2.10657 1.29338 1.33379e-13 -1.62561 1.03779 2.06799e-13 -1.18263 1.18263 2.69155e-13 -1.03779 1.62561 5.98307e-13 -1.29338 2.10657 8.59945e-13 -1.86252 2.41731 6.90429e-13 -2.7217 2.43046 4.64165e-13 -3.59013 1.91006 2.9163e-13 -4.22428 1.02968 1.39558e-13 -4.54307 0 0 0 0.67881 0 -0.0712701 0.658727 -3.40637e-15 -0.146068 0.646395 1.09994e-16 -0.228067 0.627405 2.13227e-16 -0.293392 0.595543 5.40027e-15 -0.35314 0.5612 1.94172e-14 -0.411263 0.518155 5.6473e-16 -0.467889 0.467889 -2.06403e-14 -0.518155 0.411263 9.98556e-17 -0.5612 0.35314 2.72584e-14 -0.595543 0.293392 1.6823e-14 -0.627405 0.228067 9.40414e-15 -0.646395 0.146068 6.79944e-15 -0.658727 0.0712701 -7.27225e-17 -0.67881 0 0 0 0.695792 0 -0.0721046 0.675501 -2.38055e-15 -0.148124 0.663781 -1.50103e-15 -0.232222 0.645536 -8.79389e-16 -0.300034 0.614016 3.8583e-16 -0.362291 0.579434 1.01551e-14 -0.423436 0.535182 5.2508e-15 -0.482873 0.482873 -1.66917e-14 -0.535182 0.423436 -6.74497e-15 -0.579434 0.362291 -6.91383e-15 -0.614016 0.300034 -7.61193e-16 -0.645536 0.232222 1.76386e-15 -0.663781 0.148124 -1.66305e-15 -0.675501 0.0721046 -1.91197e-15 -0.695792 0 0 0 0.714383 0 -0.0734228 0.693733 -2.10924e-15 -0.151059 0.682281 -2.21834e-15 -0.237437 0.664317 -9.89504e-16 -0.307619 0.632689 -2.98368e-15 -0.37215 0.597594 1.41513e-15 -0.435939 0.552055 5.86071e-15 -0.497858 0.497858 -1.26031e-14 -0.552055 0.435939 -8.81333e-15 -0.597594 0.37215 -2.24657e-14 -0.632689 0.307619 -9.66284e-15 -0.664317 0.237437 -2.1325e-15 -0.682281 0.151059 -5.19522e-15 -0.693733 0.0734228 -2.72916e-15 -0.714383 0 0 0 0.735015 0 -0.0753549 0.713813 -2.59244e-15 -0.155108 0.702198 -2.04193e-15 -0.243998 0.683923 -1.17116e-16 -0.316401 0.651619 -4.70827e-15 -0.382909 0.615661 -6.80279e-15 -0.448864 0.568733 2.39445e-15 -0.512842 0.512842 -8.37444e-15 -0.568733 0.448864 -6.10522e-15 -0.615661 0.382909 -1.93971e-14 -0.651619 0.316401 -9.88193e-15 -0.683923 0.243998 -2.28493e-15 -0.702198 0.155108 -3.79706e-15 -0.713813 0.0753549 -2.52428e-15 -0.735015 0 0 0 0.758293 0 -0.0780824 0.736289 -3.83016e-15 -0.160603 0.723948 -9.71789e-16 -0.252303 0.704598 1.73777e-15 -0.326735 0.670878 -4.78793e-15 -0.394832 0.633608 -1.44987e-14 -0.462334 0.585158 -5.14796e-15 -0.527827 0.527827 -4.0058e-15 -0.585158 0.462334 1.37937e-15 -0.633608 0.394832 2.29192e-15 -0.670878 0.326735 -1.41846e-15 -0.704598 0.252303 1.30656e-15 -0.723948 0.160603 2.53143e-15 -0.736289 0.0780824 -1.29734e-15 -0.758293 0 0 0 0.785053 0 -0.0812412 0.762122 -5.63093e-15 -0.166959 0.74893 8.80137e-16 -0.261891 0.728331 4.41497e-15 -0.338605 0.692946 -3.23474e-15 -0.408571 0.654136 -2.12943e-14 -0.477781 0.603967 -1.61857e-14 -0.544983 0.544983 4.21349e-16 -0.603967 0.477781 1.30165e-14 -0.654136 0.408571 4.05826e-14 -0.692946 0.338605 1.47488e-14 -0.728331 0.261891 8.18288e-15 -0.74893 0.166959 1.32541e-14 -0.762122 0.0812412 8.78992e-16 -0.785053 0 0 0 0.815954 0 -0.0841102 0.792216 -4.70236e-15 -0.172984 0.778822 1.58893e-15 -0.271674 0.75785 5.1595e-15 -0.351664 0.72145 -2.56255e-16 -0.424806 0.681313 -2.06871e-14 -0.497228 0.629155 -2.07305e-14 -0.567557 0.567557 3.50549e-15 -0.629155 0.497228 1.80766e-14 -0.681313 0.424806 6.07583e-14 -0.72145 0.351664 2.17874e-14 -0.75785 0.271674 1.04488e-14 -0.778822 0.172984 1.91512e-14 -0.792216 0.0841102 2.75492e-15 -0.815954 0 0 0 0.85248 0 -0.0886704 0.827403 1.46512e-16 -0.182076 0.812608 4.5829e-16 -0.285146 0.78963 2.97484e-15 -0.368057 0.750665 4.07245e-15 -0.443457 0.708241 -1.03249e-14 -0.517843 0.653802 -1.51693e-14 -0.590131 0.590131 4.73965e-15 -0.653802 0.517843 1.26786e-14 -0.708241 0.443457 5.02611e-14 -0.750665 0.368057 1.36086e-14 -0.78963 0.285146 5.24856e-15 -0.812608 0.182076 1.68877e-14 -0.827403 0.0886704 3.87835e-15 -0.85248 0 0 0 0.897378 0 -0.095748 0.870173 8.91568e-15 -0.195733 0.85219 -2.51178e-15 -0.30411 0.824775 -2.13902e-15 -0.389413 0.780939 9.75137e-15 -0.465702 0.734796 9.79231e-15 -0.540197 0.677642 4.97913e-16 -0.612705 0.612705 4.12383e-15 -0.677642 0.540197 -3.17755e-15 -0.734796 0.465702 9.09107e-15 -0.780939 0.389413 -9.78757e-15 -0.824775 0.30411 -7.41797e-15 -0.85219 0.195733 6.46365e-15 -0.870173 0.095748 4.2493e-15 -0.897378 0 0 0 0.955534 0 -0.106812 0.924948 2.16051e-14 -0.216621 0.90095 -7.32127e-15 -0.331769 0.865249 -1.01821e-14 -0.418629 0.812888 1.67805e-14 -0.493639 0.760763 3.96646e-14 -0.565305 0.700206 2.62711e-14 -0.635279 0.635279 1.65803e-15 -0.700206 0.565305 -2.94919e-14 -0.760763 0.493639 -6.27519e-14 -0.812888 0.418629 -4.84011e-14 -0.865249 0.331769 -2.75507e-14 -0.90095 0.216621 -1.2121e-14 -0.924948 0.106812 3.86776e-15 -0.955534 0 0 0 1.03294 0 -0.108222 1.00228 3.53685e-14 -0.221957 0.983557 -1.30608e-14 -0.346807 0.954658 -1.93325e-14 -0.446623 0.906527 2.42434e-14 -0.536957 0.854639 7.45123e-14 -0.625839 0.788724 5.86509e-14 -0.712243 0.712243 -6.61326e-17 -0.788724 0.625839 -5.59756e-14 -0.854639 0.536957 -1.43575e-13 -0.906527 0.446623 -8.86969e-14 -0.954658 0.346807 -4.72019e-14 -0.983557 0.221957 -3.26094e-14 -1.00228 0.108222 4.11153e-15 -1.03294 0 0 0 1.12635 0 -0.102906 1.09794 3.72648e-14 -0.216555 1.09257 -1.5596e-14 -0.353478 1.08127 -2.13075e-14 -0.47466 1.04645 2.79736e-14 -0.592462 0.999175 9.26061e-14 -0.713171 0.92636 8.17271e-14 -0.829839 0.829839 1.07336e-14 -0.92636 0.713171 -3.58527e-14 -0.999175 0.592462 -1.34759e-13 -1.04645 0.47466 -6.91405e-14 -1.08127 0.353478 -3.02381e-14 -1.09257 0.216555 -2.6555e-14 -1.09794 0.102906 1.12446e-14 -1.12635 0 0 0 1.25428 0 -0.107966 1.22484 2.57056e-14 -0.229971 1.22547 -1.44192e-14 -0.382788 1.22176 -1.50903e-14 -0.523153 1.19074 2.74595e-14 -0.6628 1.14218 9.12785e-14 -0.807662 1.06068 9.35468e-14 -0.947435 0.947435 3.55037e-14 -1.06068 0.807662 3.6619e-14 -1.14218 0.6628 -2.41972e-14 -1.19074 0.523153 1.78221e-14 -1.22176 0.382788 2.77763e-14 -1.22547 0.229971 9.53393e-15 -1.22484 0.107966 2.60358e-14 -1.25428 0 0 0 1.50746 0 -0.150673 1.46513 6.90809e-16 -0.311662 1.44504 -9.53062e-15 -0.494242 1.4126 -6.80971e-16 -0.645865 1.35086 2.27012e-14 -0.786953 1.27961 7.05295e-14 -0.928128 1.18296 9.411e-14 -1.06503 1.06503 7.42441e-14 -1.18296 0.928128 1.6144e-13 -1.27961 0.786953 1.88111e-13 -1.35086 0.645865 1.72191e-13 -1.4126 0.494242 1.26841e-13 -1.44504 0.311662 7.56576e-14 -1.46513 0.150673 4.84852e-14 -1.50746 0 0 0 4.54307 0 -1.02968 4.22428 -3.77795e-14 -1.91006 3.59013 -9.30112e-16 -2.43046 2.7217 2.19205e-14 -2.41731 1.86252 1.36986e-14 -2.10657 1.29338 3.03591e-14 -1.62561 1.03779 8.34166e-14 -1.18263 1.18263 1.26955e-13 -1.03779 1.62561 3.38609e-13 -1.29338 2.10657 5.02165e-13 -1.86252 2.41731 3.93966e-13 -2.7217 2.43046 2.66957e-13 -3.59013 1.91006 1.71816e-13 -4.22428 1.02968 7.85928e-14 -4.54307 0 0 0 0.67881 0 -0.0712701 0.658727 -1.83327e-15 -0.146068 0.646395 1.37066e-15 -0.228067 0.627405 6.68295e-17 -0.293392 0.595543 3.41625e-16 -0.35314 0.5612 9.07704e-15 -0.411263 0.518155 -6.35477e-17 -0.467889 0.467889 -1.32643e-14 -0.518155 0.411263 -9.15409e-16 -0.5612 0.35314 1.34194e-14 -0.595543 0.293392 6.81734e-15 -0.627405 0.228067 5.57768e-15 -0.646395 0.146068 4.93281e-15 -0.658727 0.0712701 -1.83326e-15 -0.67881 0 0 0 0.695792 0 -0.0721046 0.675501 -1.43676e-15 -0.148124 0.663781 5.81693e-16 -0.232222 0.645536 1.12198e-15 -0.300034 0.614016 9.95787e-16 -0.362291 0.579434 6.94538e-15 -0.423436 0.535182 4.22896e-15 -0.482873 0.482873 -9.76001e-15 -0.535182 0.423436 -3.28095e-15 -0.579434 0.362291 -1.07446e-15 -0.614016 0.300034 2.54517e-15 -0.645536 0.232222 2.28409e-15 -0.663781 0.148124 -8.10473e-16 -0.675501 0.0721046 -1.06971e-15 -0.695792 0 0 0 0.714383 0 -0.0734228 0.693733 -1.46798e-15 -0.151059 0.682281 -2.3728e-16 -0.237437 0.664317 1.34342e-15 -0.307619 0.632689 3.25181e-16 -0.37215 0.597594 2.92539e-15 -0.435939 0.552055 5.00584e-15 -0.497858 0.497858 -6.95987e-15 -0.552055 0.435939 -4.02427e-15 -0.597594 0.37215 -8.66563e-15 -0.632689 0.307619 -8.32335e-16 -0.664317 0.237437 1.94067e-16 -0.682281 0.151059 -3.30146e-15 -0.693733 0.0734228 -7.65303e-16 -0.714383 0 0 0 0.735015 0 -0.0753549 0.713813 -1.92694e-15 -0.155108 0.702198 -1.08626e-15 -0.243998 0.683923 7.31156e-16 -0.316401 0.651619 -1.67019e-15 -0.382909 0.615661 -2.98293e-15 -0.448864 0.568733 2.2671e-15 -0.512842 0.512842 -4.86386e-15 -0.568733 0.448864 -3.14539e-15 -0.615661 0.382909 -9.35409e-15 -0.651619 0.316401 -3.31516e-15 -0.683923 0.243998 -6.92382e-16 -0.702198 0.155108 -2.54014e-15 -0.713813 0.0753549 -9.20033e-16 -0.735015 0 0 0 0.758293 0 -0.0780824 0.736289 -2.81364e-15 -0.160603 0.723948 -1.96525e-15 -0.252303 0.704598 -7.14821e-16 -0.326735 0.670878 -4.99034e-15 -0.394832 0.633608 -1.07796e-14 -0.462334 0.585158 -3.98725e-15 -0.527827 0.527827 -3.47199e-15 -0.585158 0.462334 -6.44304e-16 -0.633608 0.394832 -3.13983e-15 -0.670878 0.326735 -4.90332e-15 -0.704598 0.252303 -3.75258e-16 -0.723948 0.160603 1.47348e-15 -0.736289 0.0780824 -1.5339e-15 -0.758293 0 0 0 0.785053 0 -0.0812412 0.762122 -3.99278e-15 -0.166959 0.74893 -2.83006e-15 -0.261891 0.728331 -2.87282e-15 -0.338605 0.692946 -9.33028e-15 -0.408571 0.654136 -1.99458e-14 -0.477781 0.603967 -1.32404e-14 -0.544983 0.544983 -2.68515e-15 -0.603967 0.477781 3.35237e-15 -0.654136 0.408571 9.39408e-15 -0.692946 0.338605 -5.57782e-15 -0.728331 0.261891 1.07728e-15 -0.74893 0.166959 8.43551e-15 -0.762122 0.0812412 -2.53286e-15 -0.785053 0 0 0 0.815954 0 -0.0841102 0.792216 -3.1379e-15 -0.172984 0.778822 -2.92081e-15 -0.271674 0.75785 -3.65018e-15 -0.351664 0.72145 -9.44542e-15 -0.424806 0.681313 -2.15617e-14 -0.497228 0.629155 -1.66049e-14 -0.567557 0.567557 -7.99009e-16 -0.629155 0.497228 6.66704e-15 -0.681313 0.424806 1.82207e-14 -0.72145 0.351664 -5.01209e-15 -0.75785 0.271674 2.49316e-15 -0.778822 0.172984 1.312e-14 -0.792216 0.0841102 -2.64344e-15 -0.815954 0 0 0 0.85248 0 -0.0886704 0.827403 5.92573e-16 -0.182076 0.812608 -1.9626e-15 -0.285146 0.78963 -2.28995e-15 -0.368057 0.750665 -3.43866e-15 -0.443457 0.708241 -1.24005e-14 -0.517843 0.653802 -1.08658e-14 -0.590131 0.590131 2.80294e-15 -0.653802 0.517843 8.51203e-15 -0.708241 0.443457 1.97132e-14 -0.750665 0.368057 -3.08802e-15 -0.78963 0.285146 3.44838e-15 -0.812608 0.182076 1.36364e-14 -0.827403 0.0886704 -1.405e-15 -0.85248 0 0 0 0.897378 0 -0.095748 0.870173 7.19863e-15 -0.195733 0.85219 4.45421e-17 -0.30411 0.824775 1.2079e-15 -0.389413 0.780939 8.69001e-15 -0.465702 0.734796 7.53773e-15 -0.540197 0.677642 3.97685e-15 -0.612705 0.612705 8.1207e-15 -0.677642 0.540197 8.88734e-15 -0.734796 0.465702 1.38713e-14 -0.780939 0.389413 1.94395e-16 -0.824775 0.30411 3.94297e-15 -0.85219 0.195733 9.98498e-15 -0.870173 0.095748 1.18245e-15 -0.897378 0 0 0 0.955534 0 -0.106812 0.924948 1.66803e-14 -0.216621 0.90095 3.10063e-15 -0.331769 0.865249 6.84334e-15 -0.418629 0.812888 2.69406e-14 -0.493639 0.760763 3.8253e-14 -0.565305 0.700206 2.7923e-14 -0.635279 0.635279 1.51543e-14 -0.700206 0.565305 7.79296e-15 -0.760763 0.493639 6.95297e-16 -0.812888 0.418629 4.83516e-15 -0.865249 0.331769 3.97691e-15 -0.90095 0.216621 2.16556e-15 -0.924948 0.106812 5.11893e-15 -0.955534 0 0 0 1.03294 0 -0.108222 1.00228 2.66983e-14 -0.221957 0.983557 6.04747e-15 -0.346807 0.954658 1.27853e-14 -0.446623 0.906527 4.68445e-14 -0.536957 0.854639 7.30671e-14 -0.625839 0.788724 5.58927e-14 -0.712243 0.712243 2.24728e-14 -0.788724 0.625839 6.77461e-15 -0.854639 0.536957 -1.48068e-14 -0.906527 0.446623 1.16035e-14 -0.954658 0.346807 4.68655e-15 -0.983557 0.221957 -7.44839e-15 -1.00228 0.108222 9.97488e-15 -1.03294 0 0 0 1.12635 0 -0.102906 1.09794 2.66177e-14 -0.216555 1.09257 3.61953e-15 -0.353478 1.08127 1.07092e-14 -0.47466 1.04645 4.80865e-14 -0.592462 0.999175 8.16191e-14 -0.713171 0.92636 6.47897e-14 -0.829839 0.829839 2.35712e-14 -0.92636 0.713171 1.28596e-14 -0.999175 0.592462 -9.8659e-15 -1.04645 0.47466 2.39968e-14 -1.08127 0.353478 1.12381e-14 -1.09257 0.216555 -8.06647e-15 -1.09794 0.102906 1.37975e-14 -1.12635 0 0 0 1.25428 0 -0.107966 1.22484 1.51332e-14 -0.229971 1.22547 -4.82959e-15 -0.382788 1.22176 -4.06928e-16 -0.523153 1.19074 2.81727e-14 -0.6628 1.14218 6.01818e-14 -0.807662 1.06068 5.17789e-14 -0.947435 0.947435 1.7651e-14 -1.06068 0.807662 2.69107e-14 -1.14218 0.6628 1.8313e-14 -1.19074 0.523153 4.24444e-14 -1.22176 0.382788 2.42658e-14 -1.22547 0.229971 1.63591e-15 -1.22484 0.107966 1.63471e-14 -1.25428 0 0 0 1.50746 0 -0.150673 1.46513 -7.75537e-15 -0.311662 1.44504 -1.92999e-14 -0.494242 1.4126 -2.05631e-14 -0.645865 1.35086 -1.28969e-14 -0.786953 1.27961 8.75533e-15 -0.928128 1.18296 1.68604e-14 -1.06503 1.06503 4.71207e-15 -1.18296 0.928128 4.89278e-14 -1.27961 0.786953 6.97299e-14 -1.35086 0.645865 6.69462e-14 -1.4126 0.494242 4.37695e-14 -1.44504 0.311662 2.16588e-14 -1.46513 0.150673 1.76237e-14 -1.50746 0 0 0 4.54307 0 -1.02968 4.22428 -4.2048e-14 -1.91006 3.59013 -3.97913e-14 -2.43046 2.7217 -4.97592e-14 -2.41731 1.86252 -7.51224e-14 -2.10657 1.29338 -7.26604e-14 -1.62561 1.03779 -3.9966e-14 -1.18263 1.18263 -1.52455e-14 -1.03779 1.62561 7.8911e-14 -1.29338 2.10657 1.44385e-13 -1.86252 2.41731 9.75022e-14 -2.7217 2.43046 6.97494e-14 -3.59013 1.91006 5.20021e-14 -4.22428 1.02968 1.76273e-14 -4.54307 0 0 0 0.67881 0 -0.0712701 0.658727 -2.60177e-16 -0.146068 0.646395 2.63132e-15 -0.228067 0.627405 -7.95682e-17 -0.293392 0.595543 -4.71702e-15 -0.35314 0.5612 -1.26307e-15 -0.411263 0.518155 -6.91825e-16 -0.467889 0.467889 -5.88826e-15 -0.518155 0.411263 -1.93067e-15 -0.5612 0.35314 -4.1962e-16 -0.595543 0.293392 -3.18833e-15 -0.627405 0.228067 1.75123e-15 -0.646395 0.146068 3.06619e-15 -0.658727 0.0712701 -3.59379e-15 -0.67881 0 0 0 0.695792 0 -0.0721046 0.675501 -4.92969e-16 -0.148124 0.663781 2.66442e-15 -0.232222 0.645536 3.12335e-15 -0.300034 0.614016 1.60574e-15 -0.362291 0.579434 3.73564e-15 -0.423436 0.535182 3.20711e-15 -0.482873 0.482873 -2.82832e-15 -0.535182 0.423436 1.83081e-16 -0.579434 0.362291 4.7649e-15 -0.614016 0.300034 5.85153e-15 -0.645536 0.232222 2.80432e-15 -0.663781 0.148124 4.21093e-17 -0.675501 0.0721046 -2.2745e-16 -0.695792 0 0 0 0.714383 0 -0.0734228 0.693733 -8.26723e-16 -0.151059 0.682281 1.74378e-15 -0.237437 0.664317 3.67635e-15 -0.307619 0.632689 3.63404e-15 -0.37215 0.597594 4.43564e-15 -0.435939 0.552055 4.15097e-15 -0.497858 0.497858 -1.31666e-15 -0.552055 0.435939 7.64782e-16 -0.597594 0.37215 5.13442e-15 -0.632689 0.307619 7.99817e-15 -0.664317 0.237437 2.52063e-15 -0.682281 0.151059 -1.40769e-15 -0.693733 0.0734228 1.19855e-15 -0.714383 0 0 0 0.735015 0 -0.0753549 0.713813 -1.26144e-15 -0.155108 0.702198 -1.30598e-16 -0.243998 0.683923 1.57943e-15 -0.316401 0.651619 1.36788e-15 -0.382909 0.615661 8.36932e-16 -0.448864 0.568733 2.13975e-15 -0.512842 0.512842 -1.35329e-15 -0.568733 0.448864 -1.85569e-16 -0.615661 0.382909 6.88923e-16 -0.651619 0.316401 3.2516e-15 -0.683923 0.243998 9.00163e-16 -0.702198 0.155108 -1.28322e-15 -0.713813 0.0753549 6.84216e-16 -0.735015 0 0 0 0.758293 0 -0.0780824 0.736289 -1.79711e-15 -0.160603 0.723948 -2.95872e-15 -0.252303 0.704598 -3.16742e-15 -0.326735 0.670878 -5.19274e-15 -0.394832 0.633608 -7.06049e-15 -0.462334 0.585158 -2.82654e-15 -0.527827 0.527827 -2.93819e-15 -0.585158 0.462334 -2.66797e-15 -0.633608 0.394832 -8.57158e-15 -0.670878 0.326735 -8.38818e-15 -0.704598 0.252303 -2.05708e-15 -0.723948 0.160603 4.15527e-16 -0.736289 0.0780824 -1.77046e-15 -0.758293 0 0 0 0.785053 0 -0.0812412 0.762122 -2.35463e-15 -0.166959 0.74893 -6.54027e-15 -0.261891 0.728331 -1.01606e-14 -0.338605 0.692946 -1.54258e-14 -0.408571 0.654136 -1.85974e-14 -0.477781 0.603967 -1.02951e-14 -0.544983 0.544983 -5.79166e-15 -0.603967 0.477781 -6.31176e-15 -0.654136 0.408571 -2.17945e-14 -0.692946 0.338605 -2.59044e-14 -0.728331 0.261891 -6.02831e-15 -0.74893 0.166959 3.6169e-15 -0.762122 0.0812412 -5.94471e-15 -0.785053 0 0 0 0.815954 0 -0.0841102 0.792216 -1.57344e-15 -0.172984 0.778822 -7.43054e-15 -0.271674 0.75785 -1.24599e-14 -0.351664 0.72145 -1.86346e-14 -0.424806 0.681313 -2.24362e-14 -0.497228 0.629155 -1.24793e-14 -0.567557 0.567557 -5.1035e-15 -0.629155 0.497228 -4.74255e-15 -0.681313 0.424806 -2.43168e-14 -0.72145 0.351664 -3.18115e-14 -0.75785 0.271674 -5.46253e-15 -0.778822 0.172984 7.08868e-15 -0.792216 0.0841102 -8.04179e-15 -0.815954 0 0 0 0.85248 0 -0.0886704 0.827403 1.03863e-15 -0.182076 0.812608 -4.3835e-15 -0.285146 0.78963 -7.55473e-15 -0.368057 0.750665 -1.09498e-14 -0.443457 0.708241 -1.44761e-14 -0.517843 0.653802 -6.56229e-15 -0.590131 0.590131 8.66236e-16 -0.653802 0.517843 4.34545e-15 -0.708241 0.443457 -1.08348e-14 -0.750665 0.368057 -1.97846e-14 -0.78963 0.285146 1.64821e-15 -0.812608 0.182076 1.03851e-14 -0.827403 0.0886704 -6.68836e-15 -0.85248 0 0 0 0.897378 0 -0.095748 0.870173 5.48158e-15 -0.195733 0.85219 2.60086e-15 -0.30411 0.824775 4.55481e-15 -0.389413 0.780939 7.62865e-15 -0.465702 0.734796 5.28314e-15 -0.540197 0.677642 7.45578e-15 -0.612705 0.612705 1.21176e-14 -0.677642 0.540197 2.09522e-14 -0.734796 0.465702 1.86516e-14 -0.780939 0.389413 1.01764e-14 -0.824775 0.30411 1.53039e-14 -0.85219 0.195733 1.35063e-14 -0.870173 0.095748 -1.8844e-15 -0.897378 0 0 0 0.955534 0 -0.106812 0.924948 1.17554e-14 -0.216621 0.90095 1.35225e-14 -0.331769 0.865249 2.38688e-14 -0.418629 0.812888 3.71007e-14 -0.493639 0.760763 3.68414e-14 -0.565305 0.700206 2.95749e-14 -0.635279 0.635279 2.86505e-14 -0.700206 0.565305 4.50778e-14 -0.760763 0.493639 6.41425e-14 -0.812888 0.418629 5.80714e-14 -0.865249 0.331769 3.55045e-14 -0.90095 0.216621 1.64522e-14 -0.924948 0.106812 6.37009e-15 -0.955534 0 0 0 1.03294 0 -0.108222 1.00228 1.80281e-14 -0.221957 0.983557 2.51557e-14 -0.346807 0.954658 4.49031e-14 -0.446623 0.906527 6.94457e-14 -0.536957 0.854639 7.1622e-14 -0.625839 0.788724 5.31345e-14 -0.712243 0.712243 4.50117e-14 -0.788724 0.625839 6.95248e-14 -0.854639 0.536957 1.13962e-13 -0.906527 0.446623 1.11904e-13 -0.954658 0.346807 5.6575e-14 -0.983557 0.221957 1.77126e-14 -1.00228 0.108222 1.58382e-14 -1.03294 0 0 0 1.12635 0 -0.102906 1.09794 1.59707e-14 -0.216555 1.09257 2.2835e-14 -0.353478 1.08127 4.27259e-14 -0.47466 1.04645 6.81995e-14 -0.592462 0.999175 7.06321e-14 -0.713171 0.92636 4.78523e-14 -0.829839 0.829839 3.64088e-14 -0.92636 0.713171 6.1572e-14 -0.999175 0.592462 1.15028e-13 -1.04645 0.47466 1.17134e-13 -1.08127 0.353478 5.27143e-14 -1.09257 0.216555 1.04221e-14 -1.09794 0.102906 1.63505e-14 -1.12635 0 0 0 1.25428 0 -0.107966 1.22484 4.56081e-15 -0.229971 1.22547 4.76007e-15 -0.382788 1.22176 1.42765e-14 -0.523153 1.19074 2.8886e-14 -0.6628 1.14218 2.90852e-14 -0.807662 1.06068 1.0011e-14 -0.947435 0.947435 -2.01808e-16 -1.06068 0.807662 1.72024e-14 -1.14218 0.6628 6.08232e-14 -1.19074 0.523153 6.70666e-14 -1.22176 0.382788 2.07552e-14 -1.22547 0.229971 -6.26212e-15 -1.22484 0.107966 6.65849e-15 -1.25428 0 0 0 1.50746 0 -0.150673 1.46513 -1.62016e-14 -0.311662 1.44504 -2.90691e-14 -0.494242 1.4126 -4.04452e-14 -0.645865 1.35086 -4.8495e-14 -0.786953 1.27961 -5.30189e-14 -0.928128 1.18296 -6.03893e-14 -1.06503 1.06503 -6.482e-14 -1.18296 0.928128 -6.35839e-14 -1.27961 0.786953 -4.86511e-14 -1.35086 0.645865 -3.82985e-14 -1.4126 0.494242 -3.93023e-14 -1.44504 0.311662 -3.234e-14 -1.46513 0.150673 -1.32378e-14 -1.50746 0 0 0 4.54307 0 -1.02968 4.22428 -4.63164e-14 -1.91006 3.59013 -7.86525e-14 -2.43046 2.7217 -1.21439e-13 -2.41731 1.86252 -1.63943e-13 -2.10657 1.29338 -1.7568e-13 -1.62561 1.03779 -1.63349e-13 -1.18263 1.18263 -1.57446e-13 -1.03779 1.62561 -1.80787e-13 -1.29338 2.10657 -2.13395e-13 -1.86252 2.41731 -1.98961e-13 -2.7217 2.43046 -1.27458e-13 -3.59013 1.91006 -6.78117e-14 -4.22428 1.02968 -4.33383e-14 -4.54307 0 0 0 0.67881 0 -0.0712701 0.658727 1.31292e-15 -0.146068 0.646395 3.89198e-15 -0.228067 0.627405 -2.25966e-16 -0.293392 0.595543 -9.77566e-15 -0.35314 0.5612 -1.16032e-14 -0.411263 0.518155 -1.3201e-15 -0.467889 0.467889 1.48777e-15 -0.518155 0.411263 -2.94594e-15 -0.5612 0.35314 -1.42587e-14 -0.595543 0.293392 -1.3194e-14 -0.627405 0.228067 -2.07523e-15 -0.646395 0.146068 1.19956e-15 -0.658727 0.0712701 -5.35433e-15 -0.67881 0 0 0 0.695792 0 -0.0721046 0.675501 4.50822e-16 -0.148124 0.663781 4.74715e-15 -0.232222 0.645536 5.12472e-15 -0.300034 0.614016 2.2157e-15 -0.362291 0.579434 5.25907e-16 -0.423436 0.535182 2.18527e-15 -0.482873 0.482873 4.10337e-15 -0.535182 0.423436 3.64711e-15 -0.579434 0.362291 1.06043e-14 -0.614016 0.300034 9.15789e-15 -0.645536 0.232222 3.32454e-15 -0.663781 0.148124 8.94692e-16 -0.675501 0.0721046 6.14812e-16 -0.695792 0 0 0 0.714383 0 -0.0734228 0.693733 -1.85463e-16 -0.151059 0.682281 3.72484e-15 -0.237437 0.664317 6.00928e-15 -0.307619 0.632689 6.94291e-15 -0.37215 0.597594 5.9459e-15 -0.435939 0.552055 3.2961e-15 -0.497858 0.497858 4.32654e-15 -0.552055 0.435939 5.55384e-15 -0.597594 0.37215 1.89345e-14 -0.632689 0.307619 1.68287e-14 -0.664317 0.237437 4.84719e-15 -0.682281 0.151059 4.86073e-16 -0.693733 0.0734228 3.16241e-15 -0.714383 0 0 0 0.735015 0 -0.0753549 0.713813 -5.95933e-16 -0.155108 0.702198 8.25065e-16 -0.243998 0.683923 2.4277e-15 -0.316401 0.651619 4.40596e-15 -0.382909 0.615661 4.65679e-15 -0.448864 0.568733 2.0124e-15 -0.512842 0.512842 2.15729e-15 -0.568733 0.448864 2.77426e-15 -0.615661 0.382909 1.07319e-14 -0.651619 0.316401 9.81837e-15 -0.683923 0.243998 2.49271e-15 -0.702198 0.155108 -2.62991e-17 -0.713813 0.0753549 2.28846e-15 -0.735015 0 0 0 0.758293 0 -0.0780824 0.736289 -7.8059e-16 -0.160603 0.723948 -3.95218e-15 -0.252303 0.704598 -5.62001e-15 -0.326735 0.670878 -5.39514e-15 -0.394832 0.633608 -3.34142e-15 -0.462334 0.585158 -1.66583e-15 -0.527827 0.527827 -2.40438e-15 -0.585158 0.462334 -4.69164e-15 -0.633608 0.394832 -1.40033e-14 -0.670878 0.326735 -1.1873e-14 -0.704598 0.252303 -3.7389e-15 -0.723948 0.160603 -6.42423e-16 -0.736289 0.0780824 -2.00702e-15 -0.758293 0 0 0 0.785053 0 -0.0812412 0.762122 -7.16486e-16 -0.166959 0.74893 -1.02505e-14 -0.261891 0.728331 -1.74484e-14 -0.338605 0.692946 -2.15213e-14 -0.408571 0.654136 -1.72489e-14 -0.477781 0.603967 -7.34981e-15 -0.544983 0.544983 -8.89816e-15 -0.603967 0.477781 -1.59759e-14 -0.654136 0.408571 -5.2983e-14 -0.692946 0.338605 -4.6231e-14 -0.728331 0.261891 -1.31339e-14 -0.74893 0.166959 -1.20172e-15 -0.762122 0.0812412 -9.35655e-15 -0.785053 0 0 0 0.815954 0 -0.0841102 0.792216 -8.97423e-18 -0.172984 0.778822 -1.19403e-14 -0.271674 0.75785 -2.12696e-14 -0.351664 0.72145 -2.78237e-14 -0.424806 0.681313 -2.33108e-14 -0.497228 0.629155 -8.35362e-15 -0.567557 0.567557 -9.408e-15 -0.629155 0.497228 -1.61521e-14 -0.681313 0.424806 -6.68544e-14 -0.72145 0.351664 -5.8611e-14 -0.75785 0.271674 -1.34182e-14 -0.778822 0.172984 1.0574e-15 -0.792216 0.0841102 -1.34401e-14 -0.815954 0 0 0 0.85248 0 -0.0886704 0.827403 1.4847e-15 -0.182076 0.812608 -6.80439e-15 -0.285146 0.78963 -1.28195e-14 -0.368057 0.750665 -1.84609e-14 -0.443457 0.708241 -1.65516e-14 -0.517843 0.653802 -2.25878e-15 -0.590131 0.590131 -1.07047e-15 -0.653802 0.517843 1.78863e-16 -0.708241 0.443457 -4.13828e-14 -0.750665 0.368057 -3.64812e-14 -0.78963 0.285146 -1.51971e-16 -0.812608 0.182076 7.13385e-15 -0.827403 0.0886704 -1.19717e-14 -0.85248 0 0 0 0.897378 0 -0.095748 0.870173 3.76453e-15 -0.195733 0.85219 5.15718e-15 -0.30411 0.824775 7.90173e-15 -0.389413 0.780939 6.56729e-15 -0.465702 0.734796 3.02856e-15 -0.540197 0.677642 1.09347e-14 -0.612705 0.612705 1.61144e-14 -0.677642 0.540197 3.30171e-14 -0.734796 0.465702 2.34319e-14 -0.780939 0.389413 2.01583e-14 -0.824775 0.30411 2.66648e-14 -0.85219 0.195733 1.70276e-14 -0.870173 0.095748 -4.95124e-15 -0.897378 0 0 0 0.955534 0 -0.106812 0.924948 6.83051e-15 -0.216621 0.90095 2.39444e-14 -0.331769 0.865249 4.08942e-14 -0.418629 0.812888 4.72607e-14 -0.