<?xml version="1.0"?> 
<VTKFile type="StructuredGrid" version="0.1"> 
<StructuredGrid WholeExtent="0 19 0 19 0 0"> 
<Piece Extent="0 19 0 19 0 0"> 
<PointData Vectors="u">
<DataArray type="Float32" Name="u" format="ascii" NumberOfComponents="3"> 
0 0.666558 0 -0.051791 0.66467 0 -0.106837 0.658008 0 -0.163348 0.646393 0 -0.218946 0.629763 0 -0.271338 0.60895 0 -0.318809 0.585336 0 -0.362413 0.559311 0 -0.406754 0.527905 0 -0.450309 0.49122 0 -0.49122 0.450309 0 -0.527905 0.406754 0 -0.559311 0.362413 0 -0.585336 0.318809 0 -0.60895 0.271338 0 -0.629763 0.218946 0 -0.646393 0.163348 0 -0.658008 0.106837 0 -0.66467 0.051791 0 -0.666558 0 0 0 0.678559 0 -0.0526639 0.676652 0 -0.10865 0.669913 0 -0.166151 0.658158 0 -0.222756 0.641309 0 -0.276132 0.620193 0 -0.324523 0.596206 0 -0.368993 0.569738 0 -0.414226 0.537762 0 -0.458657 0.500377 0 -0.500377 0.458657 0 -0.537762 0.414226 0 -0.569738 0.368993 0 -0.596206 0.324523 0 -0.620193 0.276132 0 -0.641309 0.222756 0 -0.658158 0.166151 0 -0.669913 0.10865 0 -0.676652 0.0526639 0 -0.678559 0 0 0 0.691464 0 -0.0536496 0.689525 0 -0.110686 0.68267 0 -0.169274 0.670709 0 -0.226957 0.653561 0 -0.28136 0.632062 0 -0.330689 0.607633 0 -0.376025 0.580669 0 -0.422144 0.548084 0 -0.467444 0.509977 0 -0.509977 0.467444 0 -0.548084 0.422144 0 -0.580669 0.376025 0 -0.607633 0.330689 0 -0.632062 0.28136 0 -0.653561 0.226957 0 -0.670709 0.169274 0 -0.68267 0.110686 0 -0.689525 0.0536496 0 -0.691464 0 0 0 0.705415 0 -0.0547804 0.703425 0 -0.11301 0.696396 0 -0.172802 0.684139 0 -0.231643 0.666579 0 -0.28711 0.644588 0 -0.337381 0.619624 0 -0.383567 0.592095 0 -0.43054 0.558856 0 -0.47668 0.520012 0 -0.520012 0.47668 0 -0.558856 0.43054 0 -0.592095 0.383567 0 -0.619624 0.337381 0 -0.644588 0.28711 0 -0.666579 0.231643 0 -0.684139 0.172802 0 -0.696396 0.11301 0 -0.703425 0.0547804 0 -0.705415 0 0 0 0.720586 0 -0.0560263 0.718537 0 -0.115566 0.711307 0 -0.176676 0.698707 0 -0.236775 0.68068 0 -0.293389 0.658132 0 -0.344666 0.632573 0 -0.391754 0.604423 0 -0.439631 0.570473 0 -0.486658 0.53084 0 -0.53084 0.486658 0 -0.570473 0.439631 0 -0.604423 0.391754 0 -0.632573 0.344666 0 -0.658132 0.293389 0 -0.68068 0.236775 0 -0.698707 0.176676 0 -0.711307 0.115566 0 -0.718537 0.0560263 0 -0.720586 0 0 0 0.737157 0 -0.0572853 0.735068 0 -0.118169 0.727693 0 -0.180671 0.714837 0 -0.242155 0.696435 0 -0.300091 0.673404 0 -0.352579 0.647283 0 -0.40079 0.618498 0 -0.449814 0.583765 0 -0.497968 0.543201 0 -0.543201 0.497968 0 -0.583765 0.449814 0 -0.618498 0.40079 0 -0.647283 0.352579 0 -0.673404 0.300091 0 -0.696435 0.242155 0 -0.714837 0.180671 0 -0.727693 0.118169 0 -0.735068 0.0572853 0 -0.737157 0 0 0 0.755341 0 -0.058602 0.753224 0 -0.120905 0.745738 0 -0.184903 0.732677 0 -0.247915 0.713949 0 -0.307346 0.690469 0 -0.361236 0.663787 0 -0.410766 0.634333 0 -0.46115 0.598737 0 -0.510641 0.557107 0 -0.557107 0.510641 0 -0.598737 0.46115 0 -0.634333 0.410766 0 -0.663787 0.361236 0 -0.690469 0.307346 0 -0.713949 0.247915 0 -0.732677 0.184903 0 -0.745738 0.120905 0 -0.753224 0.058602 0 -0.755341 0 0 0 0.775424 0 -0.060056 0.773275 0 -0.123926 0.765667 0 -0.189578 0.752379 0 -0.254276 0.733293 0 -0.315359 0.709315 0 -0.370797 0.682014 0 -0.421783 0.651822 0 -0.47367 0.615272 0 -0.524637 0.572466 0 -0.572466 0.524637 0 -0.615272 0.47367 0 -0.651822 0.421783 0 -0.682014 0.370797 0 -0.709315 0.315359 0 -0.733293 0.254276 0 -0.752379 0.189578 0 -0.765667 0.123926 0 -0.773275 0.060056 0 -0.775424 0 0 0 0.797811 0 -0.0617998 0.795597 0 -0.127522 0.787762 0 -0.195074 0.774079 0 -0.261639 0.754428 0 -0.324479 0.729747 0 -0.381506 0.701649 0 -0.433951 0.670581 0 -0.48732 0.632976 0 -0.539743 0.588941 0 -0.588941 0.539743 0 -0.632976 0.48732 0 -0.670581 0.433951 0 -0.701649 0.381506 0 -0.729747 0.324479 0 -0.754428 0.261639 0 -0.774079 0.195074 0 -0.787762 0.127522 0 -0.795597 0.0617998 0 -0.797811 0 0 0 0.82308 0 -0.0639717 0.820745 0 -0.13196 0.812503 0 -0.201751 0.798139 0 -0.270401 0.777579 0 -0.335083 0.751853 0 -0.39368 0.722678 0 -0.447497 0.690534 0 -0.502221 0.651754 0 -0.555974 0.606468 0 -0.606468 0.555974 0 -0.651754 0.502221 0 -0.690534 0.447497 0 -0.722678 0.39368 0 -0.751853 0.335083 0 -0.777579 0.270401 0 -0.798139 0.201751 0 -0.812503 0.13196 0 -0.820745 0.0639717 0 -0.82308 0 0 0 0.852055 0 -0.0666642 0.849533 0 -0.137425 0.840677 0 -0.209877 0.825297 0 -0.280896 0.803423 0 -0.347552 0.776253 0 -0.407724 0.745668 0 -0.462842 0.712204 0 -0.518804 0.67209 0 -0.57377 0.625505 0 -0.625505 0.57377 0 -0.67209 0.518804 0 -0.712204 0.462842 0 -0.745668 0.407724 0 -0.776253 0.347552 0 -0.803423 0.280896 0 -0.825297 0.209877 0 -0.840677 0.137425 0 -0.849533 0.0666642 0 -0.852055 0 0 0 0.885698 0 -0.0692282 0.883093 0 -0.142724 0.873937 0 -0.218005 0.858029 0 -0.291836 0.835383 0 -0.361171 0.807223 0 -0.423794 0.775491 0 -0.481181 0.740734 0 -0.539459 0.699031 0 -0.596701 0.650561 0 -0.650561 0.596701 0 -0.699031 0.539459 0 -0.740734 0.481181 0 -0.775491 0.423794 0 -0.807223 0.361171 0 -0.835383 0.291836 0 -0.858029 0.218005 0 -0.873937 0.142724 0 -0.883093 0.0692282 0 -0.885698 0 0 0 0.925117 0 -0.0717082 0.922539 0 -0.147958 0.913419 0 -0.226311 0.897498 0 -0.303493 0.874649 0 -0.376327 0.845971 0 -0.442403 0.813348 0 -0.503153 0.777302 0 -0.564964 0.733701 0 -0.62568 0.68267 0 -0.68267 0.62568 0 -0.733701 0.564964 0 -0.777302 0.503153 0 -0.813348 0.442403 0 -0.845971 0.376327 0 -0.874649 0.303493 0 -0.897498 0.226311 0 -0.913419 0.147958 0 -0.922539 0.0717082 0 -0.925117 0 0 0 0.972109 0 -0.0745237 0.969596 0 -0.153935 0.960622 0 -0.235885 0.944848 0 -0.317078 0.921945 0 -0.39418 0.892822 0 -0.464526 0.859261 0 -0.529476 0.821739 0 -0.595719 0.775865 0 -0.660793 0.721687 0 -0.721687 0.660793 0 -0.775865 0.595719 0 -0.821739 0.529476 0 -0.859261 0.464526 0 -0.892822 0.39418 0 -0.921945 0.317078 0 -0.944848 0.235885 0 -0.960622 0.153935 0 -0.969596 0.0745237 0 -0.972109 0 0 0 1.02996 0 -0.0787272 1.02736 0 -0.162666 1.01802 0 -0.249385 1.00157 0 -0.335435 0.977617 0 -0.417285 0.947044 0 -0.492074 0.911688 0 -0.561201 0.872031 0 -0.631749 0.823411 0 -0.701053 0.765853 0 -0.765853 0.701053 0 -0.823411 0.631749 0 -0.872031 0.561201 0 -0.911688 0.492074 0 -0.947044 0.417285 0 -0.977617 0.335435 0 -1.00157 0.249385 0 -1.01802 0.162666 0 -1.02736 0.0787272 0 -1.02996 0 0 0 1.10541 0 -0.0859994 1.10226 0 -0.177382 1.09113 0 -0.271151 1.07174 0 -0.363341 1.04401 0 -0.450153 1.00936 0 -0.528756 0.970105 0 -0.60092 0.926899 0 -0.674285 0.874823 0 -0.746346 0.814059 0 -0.814059 0.746346 0 -0.874823 0.674285 0 -0.926899 0.60092 0 -0.970105 0.528756 0 -1.00936 0.450153 0 -1.04401 0.363341 0 -1.07174 0.271151 0 -1.09113 0.177382 0 -1.10226 0.0859994 0 -1.10541 0 0 0 1.21369 0 -0.0998154 1.20895 0 -0.204787 1.19275 0 -0.310243 1.16524 0 -0.410875 1.12757 0 -0.502481 1.08293 0 -0.58282 1.03514 0 -0.654792 0.985396 0 -0.726916 0.928595 0 -0.797727 0.8655 0 -0.8655 0.797727 0 -0.928595 0.726916 0 -0.985396 0.654792 0 -1.03514 0.58282 0 -1.08293 0.502481 0 -1.12757 0.410875 0 -1.16524 0.310243 0 -1.19275 0.204787 0 -1.20895 0.0998154 0 -1.21369 0 0 0 1.38633 0 -0.110425 1.38176 0 -0.22724 1.36591 0 -0.346032 1.33863 0 -0.46137 1.30041 0 -0.568475 1.25381 0 -0.66421 1.20234 0 -0.751253 1.14706 0 -0.839245 1.08193 0 -0.925658 1.00745 0 -1.00745 0.925658 0 -1.08193 0.839245 0 -1.14706 0.751253 0 -1.20234 0.66421 0 -1.25381 0.568475 0 -1.30041 0.46137 0 -1.33863 0.346032 0 -1.36591 0.22724 0 -1.38176 0.110425 0 -1.38633 0 0 0 1.67786 0 -0.113773 1.67705 0 -0.238061 1.67251 0 -0.372613 1.66244 0 -0.514372 1.64281 0 -0.657669 1.61071 0 -0.795518 1.5657 0 -0.927623 1.5073 0 -1.06517 1.42708 0 -1.20039 1.32359 0 -1.32359 1.20039 0 -1.42708 1.06517 0 -1.5073 0.927623 0 -1.5657 0.795518 0 -1.61071 0.657669 0 -1.64281 0.514372 0 -1.66244 0.372613 0 -1.67251 0.238061 0 -1.67705 0.113773 0 -1.67786 0 0 0 3.15328 0 -0.35292 3.11874 0 -0.706145 3.00769 0 -1.02355 2.82806 0 -1.2748 2.60486 0 -1.44842 2.37443 0 -1.55362 2.16889 0 -1.61459 1.99957 0 -1.65572 1.85855 0 -1.69545 1.75747 0 -1.75747 1.69545 0 -1.85855 1.65572 0 -1.99957 1.61459 0 -2.16889 1.55362 0 -2.37443 1.44842 0 -2.60486 1.2748 0 -2.82806 1.02355 0 -3.00769 0.706145 0 -3.11874 0.35292 0 -3.15328 0 0 </DataArray> 
</PointData> 
<Points> 
<DataArray type="Float32" NumberOfComponents="3"> 
1 0 0 0.972963 0.230959 0 0.885826 0.464017 0 0.737251 0.675619 0 0.538157 0.842845 0 0.309504 0.950898 0 0.0754898 0.997147 0 -0.1527 0.988273 0 -0.38749 0.921874 0 -0.608985 0.793182 0 -0.793182 0.608985 0 -0.921874 0.38749 0 -0.988273 0.1527 0 -0.997147 -0.0754898 0 -0.950898 -0.309504 0 -0.842845 -0.538157 0 -0.675619 -0.737251 0 -0.464017 -0.885826 0 -0.230959 -0.972963 0 0 -1 0 0.947895 0 0 0.922267 0.218925 0 0.83967 0.43984 0 0.698837 0.640415 0 0.510116 0.798928 0 0.293377 0.901351 0 0.0715564 0.94519 0 -0.144743 0.936778 0 -0.3673 0.873839 0 -0.577253 0.751853 0 -0.751853 0.577253 0 -0.873839 0.3673 0 -0.936778 0.144743 0 -0.94519 -0.0715564 0 -0.901351 -0.293377 0 -0.798928 -0.510116 0 -0.640415 -0.698837 0 -0.43984 -0.83967 0 -0.218925 -0.922267 0 0 -0.947895 0 0.895789 0 0 0.87157 0.206891 0 0.793514 0.415662 0 0.660422 0.605212 0 0.482075 0.755012 0 0.277251 0.851804 0 0.067623 0.893233 0 -0.136787 0.885284 0 -0.34711 0.825805 0 -0.545522 0.710524 0 -0.710524 0.545522 0 -0.825805 0.34711 0 -0.885284 0.136787 0 -0.893233 -0.067623 0 -0.851804 -0.277251 0 -0.755012 -0.482075 0 -0.605212 -0.660422 0 -0.415662 -0.793514 0 -0.206891 -0.87157 0 0 -0.895789 0 0.843684 0 0 0.820874 0.194857 0 0.747358 0.391484 0 0.622007 0.570009 0 0.454034 0.711095 0 0.261124 0.802258 0 0.0636895 0.841277 0 -0.12883 0.83379 0 -0.326919 0.77777 0 -0.513791 0.669195 0 -0.669195 0.513791 0 -0.77777 0.326919 0 -0.83379 0.12883 0 -0.841277 -0.0636895 0 -0.802258 -0.261124 0 -0.711095 -0.454034 0 -0.570009 -0.622007 0 -0.391484 -0.747358 0 -0.194857 -0.820874 0 0 -0.843684 0 0.791579 0 0 0.770177 0.182823 0 0.701201 0.367306 0 0.583593 0.534806 0 0.425993 0.667178 0 0.244997 0.752711 0 0.0597561 0.78932 0 -0.120874 0.782296 0 -0.306729 0.729736 0 -0.482059 0.627866 0 -0.627866 0.482059 0 -0.729736 0.306729 0 -0.782296 0.120874 0 -0.78932 -0.0597561 0 -0.752711 -0.244997 0 -0.667178 -0.425993 0 -0.534806 -0.583593 0 -0.367306 -0.701201 0 -0.182823 -0.770177 0 0 -0.791579 0 0.739474 0 0 0.719481 0.170788 0 0.655045 0.343129 0 0.545178 0.499602 0 0.397953 0.623262 0 0.22887 0.703164 0 0.0558227 0.737364 0 -0.112917 0.730802 0 -0.286539 0.681701 0 -0.450328 0.586537 0 -0.586537 0.450328 0 -0.681701 0.286539 0 -0.730802 0.112917 0 -0.737364 -0.0558227 0 -0.703164 -0.22887 0 -0.623262 -0.397953 0 -0.499602 -0.545178 0 -0.343129 -0.655045 0 -0.170788 -0.719481 0 0 -0.739474 0 0.687368 0 0 0.668784 0.158754 0 0.608889 0.318951 0 0.506763 0.464399 0 0.369912 0.579345 0 0.212743 0.653617 0 0.0518893 0.685407 0 -0.104961 0.679307 0 -0.266349 0.633667 0 -0.418597 0.545208 0 -0.545208 0.418597 0 -0.633667 0.266349 0 -0.679307 0.104961 0 -0.685407 -0.0518893 0 -0.653617 -0.212743 0 -0.579345 -0.369912 0 -0.464399 -0.506763 0 -0.318951 -0.608889 0 -0.158754 -0.668784 0 0 -0.687368 0 0.635263 0 0 0.618088 0.14672 0 0.562733 0.294773 0 0.468349 0.429196 0 0.341871 0.535428 0 0.196617 0.604071 0 0.0479559 0.63345 0 -0.0970044 0.627813 0 -0.246158 0.585632 0 -0.386866 0.503879 0 -0.503879 0.386866 0 -0.585632 0.246158 0 -0.627813 0.0970044 0 -0.63345 -0.0479559 0 -0.604071 -0.196617 0 -0.535428 -0.341871 0 -0.429196 -0.468349 0 -0.294773 -0.562733 0 -0.14672 -0.618088 0 0 -0.635263 0 0.583158 0 0 0.567391 0.134686 0 0.516577 0.270595 0 0.429934 0.393992 0 0.31383 0.491512 0 0.18049 0.554524 0 0.0440225 0.581494 0 -0.089048 0.576319 0 -0.225968 0.537598 0 -0.355134 0.46255 0 -0.46255 0.355134 0 -0.537598 0.225968 0 -0.576319 0.089048 0 -0.581494 -0.0440225 0 -0.554524 -0.18049 0 -0.491512 -0.31383 0 -0.393992 -0.429934 0 -0.270595 -0.516577 0 -0.134686 -0.567391 0 0 -0.583158 0 0.531053 0 0 0.516695 0.122652 0 0.47042 0.246418 0 0.391519 0.358789 0 0.285789 0.447595 0 0.164363 0.504977 0 0.0400891 0.529537 0 -0.0810915 0.524825 0 -0.205778 0.489563 0 -0.323403 0.421221 0 -0.421221 0.323403 0 -0.489563 0.205778 0 -0.524825 0.0810915 0 -0.529537 -0.0400891 0 -0.504977 -0.164363 0 -0.447595 -0.285789 0 -0.358789 -0.391519 0 -0.246418 -0.47042 0 -0.122652 -0.516695 0 0 -0.531053 0 0.478947 0 0 0.465998 0.110617 0 0.424264 0.22224 0 0.353105 0.323586 0 0.257749 0.403678 0 0.148236 0.45543 0 0.0361556 0.477581 0 -0.0731351 0.473331 0 -0.185587 0.441529 0 -0.291672 0.379892 0 -0.379892 0.291672 0 -0.441529 0.185587 0 -0.473331 0.0731351 0 -0.477581 -0.0361556 0 -0.45543 -0.148236 0 -0.403678 -0.257749 0 -0.323586 -0.353105 0 -0.22224 -0.424264 0 -0.110617 -0.465998 0 0 -0.478947 0 0.426842 0 0 0.415302 0.0985832 0 0.378108 0.198062 0 0.31469 0.288383 0 0.229708 0.359762 0 0.132109 0.405883 0 0.0322222 0.425624 0 -0.0651786 0.421836 0 -0.165397 0.393495 0 -0.25994 0.338563 0 -0.338563 0.25994 0 -0.393495 0.165397 0 -0.421836 0.0651786 0 -0.425624 -0.0322222 0 -0.405883 -0.132109 0 -0.359762 -0.229708 0 -0.288383 -0.31469 0 -0.198062 -0.378108 0 -0.0985832 -0.415302 0 0 -0.426842 0 0.374737 0 0 0.364605 0.086549 0 0.331952 0.173884 0 0.276275 0.253179 0 0.201667 0.315845 0 0.115983 0.356337 0 0.0282888 0.373668 0 -0.0572222 0.370342 0 -0.145207 0.34546 0 -0.228209 0.297235 0 -0.297235 0.228209 0 -0.34546 0.145207 0 -0.370342 0.0572222 0 -0.373668 -0.0282888 0 -0.356337 -0.115983 0 -0.315845 -0.201667 0 -0.253179 -0.276275 0 -0.173884 -0.331952 0 -0.086549 -0.364605 0 0 -0.374737 0 0.322632 0 0 0.313909 0.0745148 0 0.285795 0.149707 0 0.237861 0.217976 0 0.173626 0.271928 0 0.0998558 0.30679 0 0.0243554 0.321711 0 -0.0492657 0.318848 0 -0.125017 0.297426 0 -0.196478 0.255906 0 -0.255906 0.196478 0 -0.297426 0.125017 0 -0.318848 0.0492657 0 -0.321711 -0.0243554 0 -0.30679 -0.0998558 0 -0.271928 -0.173626 0 -0.217976 -0.237861 0 -0.149707 -0.285795 0 -0.0745148 -0.313909 0 0 -0.322632 0 0.270526 0 0 0.263212 0.0624806 0 0.239639 0.125529 0 0.199446 0.182773 0 0.145585 0.228012 0 0.083729 0.257243 0 0.020422 0.269754 0 -0.0413093 0.267354 0 -0.104826 0.249391 0 -0.164746 0.214577 0 -0.214577 0.164746 0 -0.249391 0.104826 0 -0.267354 0.0413093 0 -0.269754 -0.020422 0 -0.257243 -0.083729 0 -0.228012 -0.145585 0 -0.182773 -0.199446 0 -0.125529 -0.239639 0 -0.0624806 -0.263212 0 0 -0.270526 0 0.218421 0 0 0.212516 0.0504464 0 0.193483 0.101351 0 0.161031 0.147569 0 0.117545 0.184095 0 0.0676022 0.207696 0 0.0164886 0.217798 0 -0.0333528 0.21586 0 -0.084636 0.201357 0 -0.133015 0.173248 0 -0.173248 0.133015 0 -0.201357 0.084636 0 -0.21586 0.0333528 0 -0.217798 -0.0164886 0 -0.207696 -0.0676022 0 -0.184095 -0.117545 0 -0.147569 -0.161031 0 -0.101351 -0.193483 0 -0.0504464 -0.212516 0 0 -0.218421 0 0.166316 0 0 0.161819 0.0384122 0 0.147327 0.0771734 0 0.122617 0.112366 0 0.0895039 0.140178 0 0.0514754 0.158149 0 0.0125551 0.165841 0 -0.0253963 0.164365 0 -0.0644458 0.153322 0 -0.101284 0.131919 0 -0.131919 0.101284 0 -0.153322 0.0644458 0 -0.164365 0.0253963 0 -0.165841 -0.0125551 0 -0.158149 -0.0514754 0 -0.140178 -0.0895039 0 -0.112366 -0.122617 0 -0.0771734 -0.147327 0 -0.0384122 -0.161819 0 0 -0.166316 0 0.114211 0 0 0.111123 0.026378 0 0.101171 0.0529957 0 0.0842018 0.0771628 0 0.0614631 0.0962618 0 0.0353486 0.108603 0 0.00862173 0.113885 0 -0.0174399 0.112871 0 -0.0442555 0.105288 0 -0.0695525 0.0905897 0 -0.0905897 0.0695525 0 -0.105288 0.0442555 0 -0.112871 0.0174399 0 -0.113885 -0.00862173 0 -0.108603 -0.0353486 0 -0.0962618 -0.0614631 0 -0.0771628 -0.0842018 0 -0.0529957 -0.101171 0 -0.026378 -0.111123 0 0 -0.114211 0 0.0621053 0 0 0.0604261 0.0143438 0 0.0550145 0.0288179 0 0.0457872 0.0419595 0 0.0334224 0.0523451 0 0.0192218 0.0590558 0 0.00468831 0.0619281 0 -0.00948345 0.0613769 0 -0.0240652 0.0572532 0 -0.0378212 0.0492608 0 -0.0492608 0.0378212 0 -0.0572532 0.0240652 0 -0.0613769 0.00948345 0 -0.0619281 -0.00468831 0 -0.0590558 -0.0192218 0 -0.0523451 -0.0334224 0 -0.0419595 -0.0457872 0 -0.0288179 -0.0550145 0 -0.0143438 -0.0604261 0 0 -0.0621053 0 0.01 0 0 0.00972963 0.00230959 0 0.00885826 0.00464017 0 0.00737251 0.00675619 0 0.00538157 0.00842845 0 0.00309504 0.00950898 0 0.000754898 0.00997147 0 -0.001527 0.00988273 0 -0.0038749 0.00921874 0 -0.00608985 0.00793182 0 -0.00793182 0.00608985 0 -0.00921874 0.0038749 0 -0.00988273 0.001527 0 -0.00997147 -0.000754898 0 -0.00950898 -0.00309504 0 -0.00842845 -0.00538157 0 -0.00675619 -0.00737251 0 -0.00464017 -0.00885826 0 -0.00230959 -0.00972963 0 0 -0.01 0 
</DataArray>
</Points> 
</Piece> 
</StructuredGrid> 
</VTKFile> 
