<?xml version="1.0"?> 
<VTKFile type="StructuredGrid" version="0.1"> 
<StructuredGrid WholeExtent="0 19 0 19 0 0"> 
<Piece Extent="0 19 0 19 0 0"> 
<PointData Vectors="u">
<DataArray type="Float32" Name="u" format="ascii" NumberOfComponents="3"> 
2.04614e-08 1 0 -7.98838e-09 1.05404 0 -1.51292e-08 1.111 0 -5.41291e-09 1.17104 0 4.4221e-09 1.23433 0 1.2447e-08 1.30103 0 1.14873e-08 1.37134 0 -1.39231e-09 1.44545 0 -1.42378e-08 1.52356 0 -8.02071e-09 1.6059 0 1.23129e-08 1.69268 0 1.56227e-08 1.78416 0 -2.9652e-09 1.88058 0 -1.87714e-08 1.98221 0 -1.62923e-08 2.08933 0 -2.86812e-09 2.20224 0 3.55816e-09 2.32125 0 7.039e-09 2.44669 0 5.84183e-08 2.57891 0 1.71218e-07 2.71828 0 0.0526073 0.998616 0 0.0526073 1.05258 0 0.0526073 1.10947 0 0.0526073 1.16942 0 0.0526073 1.23262 0 0.0526073 1.29923 0 0.0526073 1.36944 0 0.0526073 1.44345 0 0.0526073 1.52145 0 0.0526073 1.60368 0 0.0526073 1.69034 0 0.0526073 1.78169 0 0.0526073 1.87797 0 0.0526073 1.97946 0 0.0526073 2.08644 0 0.0526073 2.19919 0 0.0526073 2.31803 0 0.0526073 2.44331 0 0.0526073 2.57534 0 0.0526073 2.71452 0 0.105069 0.994466 0 0.105069 1.04821 0 0.105069 1.10485 0 0.105069 1.16456 0 0.105069 1.2275 0 0.105069 1.29383 0 0.105069 1.36375 0 0.105069 1.43745 0 0.105069 1.51513 0 0.105069 1.59701 0 0.105069 1.68332 0 0.105069 1.77428 0 0.105069 1.87017 0 0.105069 1.97124 0 0.105069 2.07776 0 0.105069 2.19005 0 0.105069 2.3084 0 0.105069 2.43315 0 0.105069 2.56464 0 0.105069 2.70324 0 0.157239 0.987558 0 0.157239 1.04093 0 0.157239 1.09718 0 0.157239 1.15647 0 0.157239 1.21897 0 0.157239 1.28485 0 0.157239 1.35428 0 0.157239 1.42747 0 0.157239 1.50461 0 0.157239 1.58592 0 0.157239 1.67162 0 0.157239 1.76196 0 0.157239 1.85718 0 0.157239 1.95754 0 0.157239 2.06333 0 0.157239 2.17484 0 0.157239 2.29237 0 0.157239 2.41625 0 0.157239 2.54683 0 0.157239 2.68446 0 0.208975 0.977924 0 0.208975 1.03077 0 0.208975 1.08648 0 0.208975 1.14519 0 0.208975 1.20708 0 0.208975 1.27231 0 0.208975 1.34107 0 0.208975 1.41354 0 0.208975 1.48993 0 0.208975 1.57045 0 0.208975 1.65532 0 0.208975 1.74477 0 0.208975 1.83906 0 0.208975 1.93845 0 0.208975 2.0432 0 0.208975 2.15362 0 0.208975 2.27001 0 0.208975 2.39268 0 0.208975 2.52198 0 0.208975 2.65827 0 0.260131 0.965569 0 0.260131 1.01775 0 0.260131 1.07275 0 0.260131 1.13072 0 0.260131 1.19183 0 0.260131 1.25624 0 0.260131 1.32413 0 0.260131 1.39568 0 0.260131 1.47111 0 0.260131 1.55061 0 0.260131 1.6344 0 0.260131 1.72273 0 0.260131 1.81583 0 0.260131 1.91396 0 0.260131 2.01739 0 0.260131 2.12641 0 0.260131 2.24133 0 0.260131 2.36245 0 0.260131 2.49012 0 0.260131 2.62469 0 0.310567 0.950553 0 0.310567 1.00192 0 0.310567 1.05607 0 0.310567 1.11314 0 0.310567 1.17329 0 0.310567 1.2367 0 0.310567 1.30353 0 0.310567 1.37398 0 0.310567 1.44823 0 0.310567 1.52649 0 0.310567 1.60899 0 0.310567 1.69594 0 0.310567 1.78759 0 0.310567 1.88419 0 0.310567 1.98602 0 0.310567 2.09334 0 0.310567 2.20647 0 0.310567 2.32571 0 0.310567 2.45139 0 0.310567 2.58387 0 0.360143 0.932899 0 0.360143 0.983314 0 0.360143 1.03645 0 0.360143 1.09246 0 0.360143 1.1515 0 0.360143 1.21373 0 0.360143 1.27932 0 0.360143 1.34846 0 0.360143 1.42133 0 0.360143 1.49814 0 0.360143 1.5791 0 0.360143 1.66444 0 0.360143 1.75439 0 0.360143 1.8492 0 0.360143 1.94913 0 0.360143 2.05446 0 0.360143 2.16549 0 0.360143 2.28252 0 0.360143 2.40587 0 0.360143 2.53588 0 0.408721 0.912656 0 0.408721 0.961977 0 0.408721 1.01396 0 0.408721 1.06876 0 0.408721 1.12652 0 0.408721 1.18739 0 0.408721 1.25156 0 0.408721 1.3192 0 0.408721 1.39049 0 0.408721 1.46563 0 0.408721 1.54484 0 0.408721 1.62832 0 0.408721 1.71632 0 0.408721 1.80907 0 0.408721 1.90684 0 0.408721 2.00988 0 0.408721 2.1185 0 0.408721 2.23299 0 0.408721 2.35366 0 0.408721 2.48086 0 0.456168 0.889901 0 0.456168 0.937992 0 0.456168 0.988683 0 0.456168 1.04211 0 0.456168 1.09843 0 0.456168 1.15779 0 0.456168 1.22036 0 0.456168 1.28631 0 0.456168 1.35582 0 0.456168 1.42909 0 0.456168 1.50632 0 0.456168 1.58772 0 0.456168 1.67353 0 0.456168 1.76397 0 0.456168 1.85929 0 0.456168 1.95977 0 0.456168 2.06568 0 0.456168 2.17731 0 0.456168 2.29498 0 0.456168 2.419 0 0.502351 0.864655 0 0.502351 0.911382 0 0.502351 0.960635 0 0.502351 1.01255 0 0.502351 1.06727 0 0.502351 1.12494 0 0.502351 1.18574 0 0.502351 1.24982 0 0.502351 1.31736 0 0.502351 1.38855 0 0.502351 1.46359 0 0.502351 1.54268 0 0.502351 1.62605 0 0.502351 1.71393 0 0.502351 1.80655 0 0.502351 1.90418 0 0.502351 2.00708 0 0.502351 2.11555 0 0.502351 2.22987 0 0.502351 2.35038 0 0.547143 0.837045 0 0.547143 0.88228 0 0.547143 0.92996 0 0.547143 0.980215 0 0.547143 1.03319 0 0.547143 1.08902 0 0.547143 1.14787 0 0.547143 1.20991 0 0.547143 1.27529 0 0.547143 1.34421 0 0.547143 1.41685 0 0.547143 1.49342 0 0.547143 1.57413 0 0.547143 1.6592 0 0.547143 1.74886 0 0.547143 1.84337 0 0.547143 1.94299 0 0.547143 2.04799 0 0.547143 2.15867 0 0.547143 2.27532 0 0.59042 0.807092 0 0.59042 0.850708 0 0.59042 0.896681 0 0.59042 0.945139 0 0.59042 0.996215 0 0.59042 1.05005 0 0.59042 1.1068 0 0.59042 1.16661 0 0.59042 1.22966 0 0.59042 1.29611 0 0.59042 1.36615 0 0.59042 1.43998 0 0.59042 1.5178 0 0.59042 1.59982 0 0.59042 1.68628 0 0.59042 1.77741 0 0.59042 1.87346 0 0.59042 1.9747 0 0.59042 2.08142 0 0.59042 2.1939 0 0.632061 0.774918 0 0.632061 0.816795 0 0.632061 0.860936 0 0.632061 0.907462 0 0.632061 0.956503 0 0.632061 1.00819 0 0.632061 1.06268 0 0.632061 1.12011 0 0.632061 1.18064 0 0.632061 1.24444 0 0.632061 1.31169 0 0.632061 1.38258 0 0.632061 1.45729 0 0.632061 1.53605 0 0.632061 1.61906 0 0.632061 1.70655 0 0.632061 1.79878 0 0.632061 1.89599 0 0.632061 1.99845 0 0.632061 2.10645 0 0.671953 0.740601 0 0.671953 0.780624 0 0.671953 0.822811 0 0.671953 0.867276 0 0.671953 0.914145 0 0.671953 0.963547 0 0.671953 1.01562 0 0.671953 1.0705 0 0.671953 1.12835 0 0.671953 1.18933 0 0.671953 1.2536 0 0.671953 1.32135 0 0.671953 1.39276 0 0.671953 1.46802 0 0.671953 1.54736 0 0.671953 1.63098 0 0.671953 1.71912 0 0.671953 1.81202 0 0.671953 1.90995 0 0.671953 2.01316 0 0.709983 0.704209 0 0.709983 0.742265 0 0.709983 0.782378 0 0.709983 0.824659 0 0.709983 0.869224 0 0.709983 0.916199 0 0.709983 0.965711 0 0.709983 1.0179 0 0.709983 1.07291 0 0.709983 1.13089 0 0.709983 1.192 0 0.709983 1.25642 0 0.709983 1.32432 0 0.709983 1.39589 0 0.709983 1.47132 0 0.709983 1.55083 0 0.709983 1.63464 0 0.709983 1.72298 0 0.709983 1.81609 0 0.709983 1.91424 0 0.746047 0.665905 0 0.746047 0.701891 0 0.746047 0.739823 0 0.746047 0.779803 0 0.746047 0.821945 0 0.746047 0.866364 0 0.746047 0.913183 0 0.746047 0.962533 0 0.746047 1.01455 0 0.746047 1.06938 0 0.746047 1.12717 0 0.746047 1.18808 0 0.746047 1.25229 0 0.746047 1.31996 0 0.746047 1.39129 0 0.746047 1.46648 0 0.746047 1.54573 0 0.746047 1.62926 0 0.746047 1.71731 0 0.746047 1.81012 0 0.780045 0.625715 0 0.780045 0.659529 0 0.780045 0.695171 0 0.780045 0.732739 0 0.780045 0.772337 0 0.780045 0.814076 0 0.780045 0.858069 0 0.780045 0.90444 0 0.780045 0.953317 0 0.780045 1.00484 0 0.780045 1.05914 0 0.780045 1.11638 0 0.780045 1.17671 0 0.780045 1.2403 0 0.780045 1.30732 0 0.780045 1.37797 0 0.780045 1.45244 0 0.780045 1.53093 0 0.780045 1.61367 0 0.780045 1.70087 0 0.811882 0.583826 0 0.811882 0.615376 0 0.811882 0.648632 0 0.811882 0.683685 0 0.811882 0.720632 0 0.811882 0.759576 0 0.811882 0.800624 0 0.811882 0.843892 0 0.811882 0.889496 0 0.811882 0.937566 0 0.811882 0.988233 0 0.811882 1.04164 0 0.811882 1.09793 0 0.811882 1.15726 0 0.811882 1.2198 0 0.811882 1.28572 0 0.811882 1.3552 0 0.811882 1.42844 0 0.811882 1.50564 0 0.811882 1.587 0 0.841471 0.540287 0 0.841471 0.569485 0 0.841471 0.600261 0 0.841471 0.632699 0 0.841471 0.666891 0 0.841471 0.702931 0 0.841471 0.740918 0 0.841471 0.780958 0 0.841471 0.823162 0 0.841471 0.867647 0 0.841471 0.914535 0 0.841471 0.963958 0 0.841471 1.01605 0 0.841471 1.07096 0 0.841471 1.12884 0 0.841471 1.18984 0 0.841471 1.25414 0 0.841471 1.32192 0 0.841471 1.39335 0 0.841471 1.46865 0 </DataArray> 
</PointData> 
<Points> 
<DataArray type="Float32" NumberOfComponents="3"> 
0 0 0 0.0526316 0 0 0.105263 0 0 0.157895 0 0 0.210526 0 0 0.263158 0 0 0.315789 0 0 0.368421 0 0 0.421053 0 0 0.473684 0 0 0.526316 0 0 0.578947 0 0 0.631579 0 0 0.684211 0 0 0.736842 0 0 0.789474 0 0 0.842105 0 0 0.894737 0 0 0.947368 0 0 1 0 0 0 0.0526316 0 0.0526316 0.0526316 0 0.105263 0.0526316 0 0.157895 0.0526316 0 0.210526 0.0526316 0 0.263158 0.0526316 0 0.315789 0.0526316 0 0.368421 0.0526316 0 0.421053 0.0526316 0 0.473684 0.0526316 0 0.526316 0.0526316 0 0.578947 0.0526316 0 0.631579 0.0526316 0 0.684211 0.0526316 0 0.736842 0.0526316 0 0.789474 0.0526316 0 0.842105 0.0526316 0 0.894737 0.0526316 0 0.947368 0.0526316 0 1 0.0526316 0 0 0.105263 0 0.0526316 0.105263 0 0.105263 0.105263 0 0.157895 0.105263 0 0.210526 0.105263 0 0.263158 0.105263 0 0.315789 0.105263 0 0.368421 0.105263 0 0.421053 0.105263 0 0.473684 0.105263 0 0.526316 0.105263 0 0.578947 0.105263 0 0.631579 0.105263 0 0.684211 0.105263 0 0.736842 0.105263 0 0.789474 0.105263 0 0.842105 0.105263 0 0.894737 0.105263 0 0.947368 0.105263 0 1 0.105263 0 0 0.157895 0 0.0526316 0.157895 0 0.105263 0.157895 0 0.157895 0.157895 0 0.210526 0.157895 0 0.263158 0.157895 0 0.315789 0.157895 0 0.368421 0.157895 0 0.421053 0.157895 0 0.473684 0.157895 0 0.526316 0.157895 0 0.578947 0.157895 0 0.631579 0.157895 0 0.684211 0.157895 0 0.736842 0.157895 0 0.789474 0.157895 0 0.842105 0.157895 0 0.894737 0.157895 0 0.947368 0.157895 0 1 0.157895 0 0 0.210526 0 0.0526316 0.210526 0 0.105263 0.210526 0 0.157895 0.210526 0 0.210526 0.210526 0 0.263158 0.210526 0 0.315789 0.210526 0 0.368421 0.210526 0 0.421053 0.210526 0 0.473684 0.210526 0 0.526316 0.210526 0 0.578947 0.210526 0 0.631579 0.210526 0 0.684211 0.210526 0 0.736842 0.210526 0 0.789474 0.210526 0 0.842105 0.210526 0 0.894737 0.210526 0 0.947368 0.210526 0 1 0.210526 0 0 0.263158 0 0.0526316 0.263158 0 0.105263 0.263158 0 0.157895 0.263158 0 0.210526 0.263158 0 0.263158 0.263158 0 0.315789 0.263158 0 0.368421 0.263158 0 0.421053 0.263158 0 0.473684 0.263158 0 0.526316 0.263158 0 0.578947 0.263158 0 0.631579 0.263158 0 0.684211 0.263158 0 0.736842 0.263158 0 0.789474 0.263158 0 0.842105 0.263158 0 0.894737 0.263158 0 0.947368 0.263158 0 1 0.263158 0 0 0.315789 0 0.0526316 0.315789 0 0.105263 0.315789 0 0.157895 0.315789 0 0.210526 0.315789 0 0.263158 0.315789 0 0.315789 0.315789 0 0.368421 0.315789 0 0.421053 0.315789 0 0.473684 0.315789 0 0.526316 0.315789 0 0.578947 0.315789 0 0.631579 0.315789 0 0.684211 0.315789 0 0.736842 0.315789 0 0.789474 0.315789 0 0.842105 0.315789 0 0.894737 0.315789 0 0.947368 0.315789 0 1 0.315789 0 0 0.368421 0 0.0526316 0.368421 0 0.105263 0.368421 0 0.157895 0.368421 0 0.210526 0.368421 0 0.263158 0.368421 0 0.315789 0.368421 0 0.368421 0.368421 0 0.421053 0.368421 0 0.473684 0.368421 0 0.526316 0.368421 0 0.578947 0.368421 0 0.631579 0.368421 0 0.684211 0.368421 0 0.736842 0.368421 0 0.789474 0.368421 0 0.842105 0.368421 0 0.894737 0.368421 0 0.947368 0.368421 0 1 0.368421 0 0 0.421053 0 0.0526316 0.421053 0 0.105263 0.421053 0 0.157895 0.421053 0 0.210526 0.421053 0 0.263158 0.421053 0 0.315789 0.421053 0 0.368421 0.421053 0 0.421053 0.421053 0 0.473684 0.421053 0 0.526316 0.421053 0 0.578947 0.421053 0 0.631579 0.421053 0 0.684211 0.421053 0 0.736842 0.421053 0 0.789474 0.421053 0 0.842105 0.421053 0 0.894737 0.421053 0 0.947368 0.421053 0 1 0.421053 0 0 0.473684 0 0.0526316 0.473684 0 0.105263 0.473684 0 0.157895 0.473684 0 0.210526 0.473684 0 0.263158 0.473684 0 0.315789 0.473684 0 0.368421 0.473684 0 0.421053 0.473684 0 0.473684 0.473684 0 0.526316 0.473684 0 0.578947 0.473684 0 0.631579 0.473684 0 0.684211 0.473684 0 0.736842 0.473684 0 0.789474 0.473684 0 0.842105 0.473684 0 0.894737 0.473684 0 0.947368 0.473684 0 1 0.473684 0 0 0.526316 0 0.0526316 0.526316 0 0.105263 0.526316 0 0.157895 0.526316 0 0.210526 0.526316 0 0.263158 0.526316 0 0.315789 0.526316 0 0.368421 0.526316 0 0.421053 0.526316 0 0.473684 0.526316 0 0.526316 0.526316 0 0.578947 0.526316 0 0.631579 0.526316 0 0.684211 0.526316 0 0.736842 0.526316 0 0.789474 0.526316 0 0.842105 0.526316 0 0.894737 0.526316 0 0.947368 0.526316 0 1 0.526316 0 0 0.578947 0 0.0526316 0.578947 0 0.105263 0.578947 0 0.157895 0.578947 0 0.210526 0.578947 0 0.263158 0.578947 0 0.315789 0.578947 0 0.368421 0.578947 0 0.421053 0.578947 0 0.473684 0.578947 0 0.526316 0.578947 0 0.578947 0.578947 0 0.631579 0.578947 0 0.684211 0.578947 0 0.736842 0.578947 0 0.789474 0.578947 0 0.842105 0.578947 0 0.894737 0.578947 0 0.947368 0.578947 0 1 0.578947 0 0 0.631579 0 0.0526316 0.631579 0 0.105263 0.631579 0 0.157895 0.631579 0 0.210526 0.631579 0 0.263158 0.631579 0 0.315789 0.631579 0 0.368421 0.631579 0 0.421053 0.631579 0 0.473684 0.631579 0 0.526316 0.631579 0 0.578947 0.631579 0 0.631579 0.631579 0 0.684211 0.631579 0 0.736842 0.631579 0 0.789474 0.631579 0 0.842105 0.631579 0 0.894737 0.631579 0 0.947368 0.631579 0 1 0.631579 0 0 0.684211 0 0.0526316 0.684211 0 0.105263 0.684211 0 0.157895 0.684211 0 0.210526 0.684211 0 0.263158 0.684211 0 0.315789 0.684211 0 0.368421 0.684211 0 0.421053 0.684211 0 0.473684 0.684211 0 0.526316 0.684211 0 0.578947 0.684211 0 0.631579 0.684211 0 0.684211 0.684211 0 0.736842 0.684211 0 0.789474 0.684211 0 0.842105 0.684211 0 0.894737 0.684211 0 0.947368 0.684211 0 1 0.684211 0 0 0.736842 0 0.0526316 0.736842 0 0.105263 0.736842 0 0.157895 0.736842 0 0.210526 0.736842 0 0.263158 0.736842 0 0.315789 0.736842 0 0.368421 0.736842 0 0.421053 0.736842 0 0.473684 0.736842 0 0.526316 0.736842 0 0.578947 0.736842 0 0.631579 0.736842 0 0.684211 0.736842 0 0.736842 0.736842 0 0.789474 0.736842 0 0.842105 0.736842 0 0.894737 0.736842 0 0.947368 0.736842 0 1 0.736842 0 0 0.789474 0 0.0526316 0.789474 0 0.105263 0.789474 0 0.157895 0.789474 0 0.210526 0.789474 0 0.263158 0.789474 0 0.315789 0.789474 0 0.368421 0.789474 0 0.421053 0.789474 0 0.473684 0.789474 0 0.526316 0.789474 0 0.578947 0.789474 0 0.631579 0.789474 0 0.684211 0.789474 0 0.736842 0.789474 0 0.789474 0.789474 0 0.842105 0.789474 0 0.894737 0.789474 0 0.947368 0.789474 0 1 0.789474 0 0 0.842105 0 0.0526316 0.842105 0 0.105263 0.842105 0 0.157895 0.842105 0 0.210526 0.842105 0 0.263158 0.842105 0 0.315789 0.842105 0 0.368421 0.842105 0 0.421053 0.842105 0 0.473684 0.842105 0 0.526316 0.842105 0 0.578947 0.842105 0 0.631579 0.842105 0 0.684211 0.842105 0 0.736842 0.842105 0 0.789474 0.842105 0 0.842105 0.842105 0 0.894737 0.842105 0 0.947368 0.842105 0 1 0.842105 0 0 0.894737 0 0.0526316 0.894737 0 0.105263 0.894737 0 0.157895 0.894737 0 0.210526 0.894737 0 0.263158 0.894737 0 0.315789 0.894737 0 0.368421 0.894737 0 0.421053 0.894737 0 0.473684 0.894737 0 0.526316 0.894737 0 0.578947 0.894737 0 0.631579 0.894737 0 0.684211 0.894737 0 0.736842 0.894737 0 0.789474 0.894737 0 0.842105 0.894737 0 0.894737 0.894737 0 0.947368 0.894737 0 1 0.894737 0 0 0.947368 0 0.0526316 0.947368 0 0.105263 0.947368 0 0.157895 0.947368 0 0.210526 0.947368 0 0.263158 0.947368 0 0.315789 0.947368 0 0.368421 0.947368 0 0.421053 0.947368 0 0.473684 0.947368 0 0.526316 0.947368 0 0.578947 0.947368 0 0.631579 0.947368 0 0.684211 0.947368 0 0.736842 0.947368 0 0.789474 0.947368 0 0.842105 0.947368 0 0.894737 0.947368 0 0.947368 0.947368 0 1 0.947368 0 0 1 0 0.0526316 1 0 0.105263 1 0 0.157895 1 0 0.210526 1 0 0.263158 1 0 0.315789 1 0 0.368421 1 0 0.421053 1 0 0.473684 1 0 0.526316 1 0 0.578947 1 0 0.631579 1 0 0.684211 1 0 0.736842 1 0 0.789474 1 0 0.842105 1 0 0.894737 1 0 0.947368 1 0 1 1 0 
</DataArray>
</Points> 
</Piece> 
</StructuredGrid> 
</VTKFile> 
