<?xml version="1.0"?> 
<VTKFile type="StructuredGrid" version="0.1"> 
<StructuredGrid WholeExtent="0 19 0 19 0 0"> 
<Piece Extent="0 19 0 19 0 0"> 
<PointData Vectors="u">
<DataArray type="Float32" Name="u" format="ascii" NumberOfComponents="3"> 
-0.573596 0.153761 0 -0.58009 0.149842 0 -0.586555 0.145704 0 -0.59301 0.141034 0 -0.599528 0.135801 0 -0.606108 0.130209 0 -0.612608 0.124325 0 -0.618967 0.117893 0 -0.625176 0.110656 0 -0.631218 0.102761 0 -0.637062 0.0945242 0 -0.642514 0.0859882 0 -0.647544 0.0768638 0 -0.652087 0.0669489 0 -0.656102 0.0564337 0 -0.659533 0.0455942 0 -0.662246 0.0345413 0 -0.664228 0.02329 0 -0.665423 0.0118108 0 -0.665815 0 0 -0.587252 0.182038 0 -0.594983 0.177953 0 -0.602707 0.173335 0 -0.61045 0.168218 0 -0.618329 0.162557 0 -0.626353 0.156245 0 -0.634241 0.149212 0 -0.641872 0.14149 0 -0.649284 0.133115 0 -0.656551 0.124027 0 -0.663611 0.114126 0 -0.670012 0.103413 0 -0.675666 0.0920041 0 -0.680586 0.0800099 0 -0.684782 0.0674751 0 -0.688162 0.0544424 0 -0.690505 0.041014 0 -0.691779 0.0273398 0 -0.691904 0.0135977 0 -0.690844 0 0 -0.597203 0.216673 0 -0.606256 0.212698 0 -0.615737 0.208157 0 -0.625581 0.202872 0 -0.635404 0.196774 0 -0.645171 0.189888 0 -0.655024 0.182176 0 -0.665055 0.173463 0 -0.674949 0.163577 0 -0.684134 0.152562 0 -0.692599 0.140557 0 -0.700492 0.127598 0 -0.707848 0.113604 0 -0.714104 0.0985604 0 -0.718858 0.0826907 0 -0.722089 0.066291 0 -0.723852 0.0496104 0 -0.724118 0.0328888 0 -0.723022 0.0163197 0 -0.720591 0 0 -0.599526 0.257224 0 -0.610847 0.254093 0 -0.622432 0.250143 0 -0.634303 0.245473 0 -0.64671 0.239936 0 -0.659757 0.23318 0 -0.672875 0.224983 0 -0.685769 0.21546 0 -0.698471 0.204714 0 -0.711186 0.192438 0 -0.723847 0.178146 0 -0.735143 0.1618 0 -0.744696 0.143897 0 -0.75251 0.124889 0 -0.758647 0.104865 0 -0.762898 0.0838858 0 -0.76469 0.0623074 0 -0.763863 0.0407077 0 -0.760689 0.0197161 0 -0.755081 0 0 -0.59151 0.301082 0 -0.604305 0.299717 0 -0.617904 0.297798 0 -0.632457 0.294817 0 -0.647784 0.290638 0 -0.663788 0.285429 0 -0.680472 0.279057 0 -0.698155 0.270715 0 -0.716572 0.259588 0 -0.734689 0.245837 0 -0.752174 0.230019 0 -0.768593 0.211982 0 -0.78426 0.190728 0 -0.797761 0.165694 0 -0.807566 0.138054 0 -0.813259 0.109407 0 -0.815063 0.0807257 0 -0.812825 0.0526647 0 -0.80729 0.0257066 0 -0.79865 0 0 -0.571346 0.342948 0 -0.584654 0.344196 0 -0.599509 0.344838 0 -0.615647 0.345157 0 -0.6328 0.344852 0 -0.651359 0.343121 0 -0.671833 0.33949 0 -0.694155 0.334289 0 -0.717653 0.327704 0 -0.742223 0.318204 0 -0.768756 0.303463 0 -0.795704 0.282768 0 -0.822078 0.257328 0 -0.844761 0.228038 0 -0.862445 0.194228 0 -0.875114 0.155125 0 -0.880681 0.112724 0 -0.877467 0.0709367 0 -0.868277 0.0328798 0 -0.853532 0 0 -0.540149 0.377075 0 -0.554159 0.381012 0 -0.56843 0.38495 0 -0.583625 0.388539 0 -0.60141 0.391767 0 -0.621714 0.394898 0 -0.643263 0.397749 0 -0.666237 0.399135 0 -0.692593 0.397854 0 -0.724103 0.394124 0 -0.759587 0.38866 0 -0.795868 0.379372 0 -0.83557 0.360828 0 -0.877106 0.328759 0 -0.916985 0.284433 0 -0.950381 0.230492 0 -0.967378 0.170414 0 -0.965789 0.108524 0 -0.951787 0.0498083 0 -0.924231 0 0 -0.505362 0.40072 0 -0.516151 0.406661 0 -0.52932 0.413012 0 -0.544551 0.419566 0 -0.560091 0.426291 0 -0.57585 0.433307 0 -0.595436 0.440666 0 -0.620419 0.448261 0 -0.648544 0.455847 0 -0.676601 0.462518 0 -0.707072 0.467033 0 -0.75013 0.468755 0 -0.807171 0.467769 0 -0.86791 0.461164 0 -0.933493 0.436791 0 -1.00541 0.38076 0 -1.06141 0.294254 0 -1.09258 0.188273 0 -1.08737 0.0807168 0 -1.02526 0 0 -0.46843 0.414068 0 -0.478912 0.421215 0 -0.489709 0.428624 0 -0.50074 0.43705 0 -0.514181 0.44639 0 -0.530795 0.455833 0 -0.548015 0.465257 0 -0.563509 0.476135 0 -0.580963 0.489854 0 -0.609192 0.505123 0 -0.648013 0.519504 0 -0.683434 0.532976 0 -0.711114 0.54839 0 -0.760866 0.566888 0 -0.856471 0.583184 0 -0.980904 0.587565 0 -1.10003 0.547402 0 -1.24335 0.413852 0 -1.31148 0.195318 0 -1.18878 0 0 -0.43469 0.419422 0 -0.443672 0.427007 0 -0.452662 0.435459 0 -0.462573 0.443968 0 -0.473557 0.452943 0 -0.484403 0.463807 0 -0.496702 0.476907 0 -0.513297 0.490072 0 -0.533584 0.501485 0 -0.550386 0.514815 0 -0.561214 0.536072 0 -0.586509 0.564282 0 -0.63796 0.590147 0 -0.6903 0.60979 0 -0.709799 0.639619 0 -0.731878 0.699178 0 -0.896367 0.780033 0 -1.20559 0.852106 0 -1.49452 0.73504 0 -2.08007 0 0 -0.419422 0.43469 0 -0.427007 0.443672 0 -0.435459 0.452662 0 -0.443968 0.462573 0 -0.452943 0.473557 0 -0.463807 0.484403 0 -0.476907 0.496702 0 -0.490072 0.513297 0 -0.501485 0.533584 0 -0.514815 0.550386 0 -0.536072 0.561214 0 -0.564282 0.586509 0 -0.590147 0.63796 0 -0.60979 0.6903 0 -0.639619 0.709799 0 -0.699178 0.731878 0 -0.780033 0.896367 0 -0.852106 1.20559 0 -0.73504 1.49452 0 0 2.08007 0 -0.414068 0.46843 0 -0.421215 0.478912 0 -0.428624 0.489709 0 -0.43705 0.50074 0 -0.44639 0.514181 0 -0.455833 0.530795 0 -0.465257 0.548015 0 -0.476135 0.563509 0 -0.489854 0.580963 0 -0.505123 0.609192 0 -0.519504 0.648013 0 -0.532976 0.683434 0 -0.54839 0.711114 0 -0.566888 0.760866 0 -0.583184 0.856471 0 -0.587565 0.980904 0 -0.547402 1.10003 0 -0.413852 1.24335 0 -0.195318 1.31148 0 0 1.18878 0 -0.40072 0.505362 0 -0.406661 0.516151 0 -0.413012 0.52932 0 -0.419566 0.544551 0 -0.426291 0.560091 0 -0.433307 0.57585 0 -0.440666 0.595436 0 -0.448261 0.620419 0 -0.455847 0.648544 0 -0.462518 0.676601 0 -0.467033 0.707072 0 -0.468755 0.75013 0 -0.467769 0.807171 0 -0.461164 0.86791 0 -0.436791 0.933493 0 -0.38076 1.00541 0 -0.294254 1.06141 0 -0.188273 1.09258 0 -0.0807168 1.08737 0 0 1.02526 0 -0.377075 0.540149 0 -0.381012 0.554159 0 -0.38495 0.56843 0 -0.388539 0.583625 0 -0.391767 0.60141 0 -0.394898 0.621714 0 -0.397749 0.643263 0 -0.399135 0.666237 0 -0.397854 0.692593 0 -0.394124 0.724103 0 -0.38866 0.759587 0 -0.379372 0.795868 0 -0.360828 0.83557 0 -0.328759 0.877106 0 -0.284433 0.916985 0 -0.230492 0.950381 0 -0.170414 0.967378 0 -0.108524 0.965789 0 -0.0498083 0.951787 0 0 0.924231 0 -0.342948 0.571346 0 -0.344196 0.584654 0 -0.344838 0.599509 0 -0.345157 0.615647 0 -0.344852 0.6328 0 -0.343121 0.651359 0 -0.33949 0.671833 0 -0.334289 0.694155 0 -0.327704 0.717653 0 -0.318204 0.742223 0 -0.303463 0.768756 0 -0.282768 0.795704 0 -0.257328 0.822078 0 -0.228038 0.844761 0 -0.194228 0.862445 0 -0.155125 0.875114 0 -0.112724 0.880681 0 -0.0709367 0.877467 0 -0.0328798 0.868277 0 0 0.853532 0 -0.301082 0.59151 0 -0.299717 0.604305 0 -0.297798 0.617904 0 -0.294817 0.632457 0 -0.290638 0.647784 0 -0.285429 0.663788 0 -0.279057 0.680472 0 -0.270715 0.698155 0 -0.259588 0.716572 0 -0.245837 0.734689 0 -0.230019 0.752174 0 -0.211982 0.768593 0 -0.190728 0.78426 0 -0.165694 0.797761 0 -0.138054 0.807566 0 -0.109407 0.813259 0 -0.0807257 0.815063 0 -0.0526647 0.812825 0 -0.0257066 0.80729 0 0 0.79865 0 -0.257224 0.599526 0 -0.254093 0.610847 0 -0.250143 0.622432 0 -0.245473 0.634303 0 -0.239936 0.64671 0 -0.23318 0.659757 0 -0.224983 0.672875 0 -0.21546 0.685769 0 -0.204714 0.698471 0 -0.192438 0.711186 0 -0.178146 0.723847 0 -0.1618 0.735143 0 -0.143897 0.744696 0 -0.124889 0.75251 0 -0.104865 0.758647 0 -0.0838858 0.762898 0 -0.0623074 0.76469 0 -0.0407077 0.763863 0 -0.0197161 0.760689 0 0 0.755081 0 -0.216673 0.597203 0 -0.212698 0.606256 0 -0.208157 0.615737 0 -0.202872 0.625581 0 -0.196774 0.635404 0 -0.189888 0.645171 0 -0.182176 0.655024 0 -0.173463 0.665055 0 -0.163577 0.674949 0 -0.152562 0.684134 0 -0.140557 0.692599 0 -0.127598 0.700492 0 -0.113604 0.707848 0 -0.0985604 0.714104 0 -0.0826907 0.718858 0 -0.066291 0.722089 0 -0.0496104 0.723852 0 -0.0328888 0.724118 0 -0.0163197 0.723022 0 0 0.720591 0 -0.182038 0.587252 0 -0.177953 0.594983 0 -0.173335 0.602707 0 -0.168218 0.61045 0 -0.162557 0.618329 0 -0.156245 0.626353 0 -0.149212 0.634241 0 -0.14149 0.641872 0 -0.133115 0.649284 0 -0.124027 0.656551 0 -0.114126 0.663611 0 -0.103413 0.670012 0 -0.0920041 0.675666 0 -0.0800099 0.680586 0 -0.0674751 0.684782 0 -0.0544424 0.688162 0 -0.041014 0.690505 0 -0.0273398 0.691779 0 -0.0135977 0.691904 0 0 0.690844 0 -0.153761 0.573596 0 -0.149842 0.58009 0 -0.145704 0.586555 0 -0.141034 0.59301 0 -0.135801 0.599528 0 -0.130209 0.606108 0 -0.124325 0.612608 0 -0.117893 0.618967 0 -0.110656 0.625176 0 -0.102761 0.631218 0 -0.0945242 0.637062 0 -0.0859882 0.642514 0 -0.0768638 0.647544 0 -0.0669489 0.652087 0 -0.0564337 0.656102 0 -0.0455942 0.659533 0 -0.0345413 0.662246 0 -0.02329 0.664228 0 -0.0118108 0.665423 0 0 0.665815 0 </DataArray> 
</PointData> 
<Points> 
<DataArray type="Float32" NumberOfComponents="3"> 
-1 -1 0 -0.947368 -1 0 -0.894737 -1 0 -0.842105 -1 0 -0.789474 -1 0 -0.736842 -1 0 -0.684211 -1 0 -0.631579 -1 0 -0.578947 -1 0 -0.526316 -1 0 -0.473684 -1 0 -0.421053 -1 0 -0.368421 -1 0 -0.315789 -1 0 -0.263158 -1 0 -0.210526 -1 0 -0.157895 -1 0 -0.105263 -1 0 -0.0526316 -1 0 0 -1 0 -1 -0.789474 0 -0.947368 -0.795014 0 -0.894737 -0.800554 0 -0.842105 -0.806094 0 -0.789474 -0.811634 0 -0.736842 -0.817175 0 -0.684211 -0.822715 0 -0.631579 -0.828255 0 -0.578947 -0.833795 0 -0.526316 -0.839335 0 -0.473684 -0.844875 0 -0.421053 -0.850416 0 -0.368421 -0.855956 0 -0.315789 -0.861496 0 -0.263158 -0.867036 0 -0.210526 -0.872576 0 -0.157895 -0.878116 0 -0.105263 -0.883657 0 -0.0526316 -0.889197 0 0 -0.894737 0 -1 -0.578947 0 -0.947368 -0.590028 0 -0.894737 -0.601108 0 -0.842105 -0.612188 0 -0.789474 -0.623269 0 -0.736842 -0.634349 0 -0.684211 -0.645429 0 -0.631579 -0.65651 0 -0.578947 -0.66759 0 -0.526316 -0.67867 0 -0.473684 -0.689751 0 -0.421053 -0.700831 0 -0.368421 -0.711911 0 -0.315789 -0.722992 0 -0.263158 -0.734072 0 -0.210526 -0.745152 0 -0.157895 -0.756233 0 -0.105263 -0.767313 0 -0.0526316 -0.778393 0 0 -0.789474 0 -1 -0.368421 0 -0.947368 -0.385042 0 -0.894737 -0.401662 0 -0.842105 -0.418283 0 -0.789474 -0.434903 0 -0.736842 -0.451524 0 -0.684211 -0.468144 0 -0.631579 -0.484765 0 -0.578947 -0.501385 0 -0.526316 -0.518006 0 -0.473684 -0.534626 0 -0.421053 -0.551247 0 -0.368421 -0.567867 0 -0.315789 -0.584488 0 -0.263158 -0.601108 0 -0.210526 -0.617729 0 -0.157895 -0.634349 0 -0.105263 -0.65097 0 -0.0526316 -0.66759 0 0 -0.684211 0 -1 -0.157895 0 -0.947368 -0.180055 0 -0.894737 -0.202216 0 -0.842105 -0.224377 0 -0.789474 -0.246537 0 -0.736842 -0.268698 0 -0.684211 -0.290859 0 -0.631579 -0.313019 0 -0.578947 -0.33518 0 -0.526316 -0.357341 0 -0.473684 -0.379501 0 -0.421053 -0.401662 0 -0.368421 -0.423823 0 -0.315789 -0.445983 0 -0.263158 -0.468144 0 -0.210526 -0.490305 0 -0.157895 -0.512465 0 -0.105263 -0.534626 0 -0.0526316 -0.556787 0 0 -0.578947 0 -1 0.0526316 0 -0.947368 0.0249307 0 -0.894737 -0.00277008 0 -0.842105 -0.0304709 0 -0.789474 -0.0581717 0 -0.736842 -0.0858726 0 -0.684211 -0.113573 0 -0.631579 -0.141274 0 -0.578947 -0.168975 0 -0.526316 -0.196676 0 -0.473684 -0.224377 0 -0.421053 -0.252078 0 -0.368421 -0.279778 0 -0.315789 -0.307479 0 -0.263158 -0.33518 0 -0.210526 -0.362881 0 -0.157895 -0.390582 0 -0.105263 -0.418283 0 -0.0526316 -0.445983 0 0 -0.473684 0 -1 0.263158 0 -0.947368 0.229917 0 -0.894737 0.196676 0 -0.842105 0.163435 0 -0.789474 0.130194 0 -0.736842 0.0969529 0 -0.684211 0.0637119 0 -0.631579 0.0304709 0 -0.578947 -0.00277008 0 -0.526316 -0.0360111 0 -0.473684 -0.0692521 0 -0.421053 -0.102493 0 -0.368421 -0.135734 0 -0.315789 -0.168975 0 -0.263158 -0.202216 0 -0.210526 -0.235457 0 -0.157895 -0.268698 0 -0.105263 -0.301939 0 -0.0526316 -0.33518 0 0 -0.368421 0 -1 0.473684 0 -0.947368 0.434903 0 -0.894737 0.396122 0 -0.842105 0.357341 0 -0.789474 0.31856 0 -0.736842 0.279778 0 -0.684211 0.240997 0 -0.631579 0.202216 0 -0.578947 0.163435 0 -0.526316 0.124654 0 -0.473684 0.0858726 0 -0.421053 0.0470914 0 -0.368421 0.00831025 0 -0.315789 -0.0304709 0 -0.263158 -0.0692521 0 -0.210526 -0.108033 0 -0.157895 -0.146814 0 -0.105263 -0.185596 0 -0.0526316 -0.224377 0 0 -0.263158 0 -1 0.684211 0 -0.947368 0.639889 0 -0.894737 0.595568 0 -0.842105 0.551247 0 -0.789474 0.506925 0 -0.736842 0.462604 0 -0.684211 0.418283 0 -0.631579 0.373961 0 -0.578947 0.32964 0 -0.526316 0.285319 0 -0.473684 0.240997 0 -0.421053 0.196676 0 -0.368421 0.152355 0 -0.315789 0.108033 0 -0.263158 0.0637119 0 -0.210526 0.0193906 0 -0.157895 -0.0249307 0 -0.105263 -0.0692521 0 -0.0526316 -0.113573 0 0 -0.157895 0 -1 0.894737 0 -0.947368 0.844875 0 -0.894737 0.795014 0 -0.842105 0.745152 0 -0.789474 0.695291 0 -0.736842 0.645429 0 -0.684211 0.595568 0 -0.631579 0.545706 0 -0.578947 0.495845 0 -0.526316 0.445983 0 -0.473684 0.396122 0 -0.421053 0.34626 0 -0.368421 0.296399 0 -0.315789 0.246537 0 -0.263158 0.196676 0 -0.210526 0.146814 0 -0.157895 0.0969529 0 -0.105263 0.0470914 0 -0.0526316 -0.00277008 0 0 -0.0526316 0 -0.894737 1 0 -0.844875 0.947368 0 -0.795014 0.894737 0 -0.745152 0.842105 0 -0.695291 0.789474 0 -0.645429 0.736842 0 -0.595568 0.684211 0 -0.545706 0.631579 0 -0.495845 0.578947 0 -0.445983 0.526316 0 -0.396122 0.473684 0 -0.34626 0.421053 0 -0.296399 0.368421 0 -0.246537 0.315789 0 -0.196676 0.263158 0 -0.146814 0.210526 0 -0.0969529 0.157895 0 -0.0470914 0.105263 0 0.00277008 0.0526316 0 0.0526316 0 0 -0.684211 1 0 -0.639889 0.947368 0 -0.595568 0.894737 0 -0.551247 0.842105 0 -0.506925 0.789474 0 -0.462604 0.736842 0 -0.418283 0.684211 0 -0.373961 0.631579 0 -0.32964 0.578947 0 -0.285319 0.526316 0 -0.240997 0.473684 0 -0.196676 0.421053 0 -0.152355 0.368421 0 -0.108033 0.315789 0 -0.0637119 0.263158 0 -0.0193906 0.210526 0 0.0249307 0.157895 0 0.0692521 0.105263 0 0.113573 0.0526316 0 0.157895 0 0 -0.473684 1 0 -0.434903 0.947368 0 -0.396122 0.894737 0 -0.357341 0.842105 0 -0.31856 0.789474 0 -0.279778 0.736842 0 -0.240997 0.684211 0 -0.202216 0.631579 0 -0.163435 0.578947 0 -0.124654 0.526316 0 -0.0858726 0.473684 0 -0.0470914 0.421053 0 -0.00831025 0.368421 0 0.0304709 0.315789 0 0.0692521 0.263158 0 0.108033 0.210526 0 0.146814 0.157895 0 0.185596 0.105263 0 0.224377 0.0526316 0 0.263158 0 0 -0.263158 1 0 -0.229917 0.947368 0 -0.196676 0.894737 0 -0.163435 0.842105 0 -0.130194 0.789474 0 -0.0969529 0.736842 0 -0.0637119 0.684211 0 -0.0304709 0.631579 0 0.00277008 0.578947 0 0.0360111 0.526316 0 0.0692521 0.473684 0 0.102493 0.421053 0 0.135734 0.368421 0 0.168975 0.315789 0 0.202216 0.263158 0 0.235457 0.210526 0 0.268698 0.157895 0 0.301939 0.105263 0 0.33518 0.0526316 0 0.368421 0 0 -0.0526316 1 0 -0.0249307 0.947368 0 0.00277008 0.894737 0 0.0304709 0.842105 0 0.0581717 0.789474 0 0.0858726 0.736842 0 0.113573 0.684211 0 0.141274 0.631579 0 0.168975 0.578947 0 0.196676 0.526316 0 0.224377 0.473684 0 0.252078 0.421053 0 0.279778 0.368421 0 0.307479 0.315789 0 0.33518 0.263158 0 0.362881 0.210526 0 0.390582 0.157895 0 0.418283 0.105263 0 0.445983 0.0526316 0 0.473684 0 0 0.157895 1 0 0.180055 0.947368 0 0.202216 0.894737 0 0.224377 0.842105 0 0.246537 0.789474 0 0.268698 0.736842 0 0.290859 0.684211 0 0.313019 0.631579 0 0.33518 0.578947 0 0.357341 0.526316 0 0.379501 0.473684 0 0.401662 0.421053 0 0.423823 0.368421 0 0.445983 0.315789 0 0.468144 0.263158 0 0.490305 0.210526 0 0.512465 0.157895 0 0.534626 0.105263 0 0.556787 0.0526316 0 0.578947 0 0 0.368421 1 0 0.385042 0.947368 0 0.401662 0.894737 0 0.418283 0.842105 0 0.434903 0.789474 0 0.451524 0.736842 0 0.468144 0.684211 0 0.484765 0.631579 0 0.501385 0.578947 0 0.518006 0.526316 0 0.534626 0.473684 0 0.551247 0.421053 0 0.567867 0.368421 0 0.584488 0.315789 0 0.601108 0.263158 0 0.617729 0.210526 0 0.634349 0.157895 0 0.65097 0.105263 0 0.66759 0.0526316 0 0.684211 0 0 0.578947 1 0 0.590028 0.947368 0 0.601108 0.894737 0 0.612188 0.842105 0 0.623269 0.789474 0 0.634349 0.736842 0 0.645429 0.684211 0 0.65651 0.631579 0 0.66759 0.578947 0 0.67867 0.526316 0 0.689751 0.473684 0 0.700831 0.421053 0 0.711911 0.368421 0 0.722992 0.315789 0 0.734072 0.263158 0 0.745152 0.210526 0 0.756233 0.157895 0 0.767313 0.105263 0 0.778393 0.0526316 0 0.789474 0 0 0.789474 1 0 0.795014 0.947368 0 0.800554 0.894737 0 0.806094 0.842105 0 0.811634 0.789474 0 0.817175 0.736842 0 0.822715 0.684211 0 0.828255 0.631579 0 0.833795 0.578947 0 0.839335 0.526316 0 0.844875 0.473684 0 0.850416 0.421053 0 0.855956 0.368421 0 0.861496 0.315789 0 0.867036 0.263158 0 0.872576 0.210526 0 0.878116 0.157895 0 0.883657 0.105263 0 0.889197 0.0526316 0 0.894737 0 0 1 1 0 1 0.947368 0 1 0.894737 0 1 0.842105 0 1 0.789474 0 1 0.736842 0 1 0.684211 0 1 0.631579 0 1 0.578947 0 1 0.526316 0 1 0.473684 0 1 0.421053 0 1 0.368421 0 1 0.315789 0 1 0.263158 0 1 0.210526 0 1 0.157895 0 1 0.105263 0 1 0.0526316 0 1 0 0 
</DataArray>
</Points> 
</Piece> 
</StructuredGrid> 
</VTKFile> 
