<?xml version="1.0"?> 
<VTKFile type="StructuredGrid" version="0.1"> 
<StructuredGrid WholeExtent="0 14 0 14 0 14"> 
<Piece Extent="0 14 0 14 0 14"> 
<PointData Vectors="u">
<DataArray type="Float32" Name="u" format="ascii" NumberOfComponents="3"> 
-2.59224e-05 1.00927 0.989998 -2.08113e-05 1.08368 0.987458 -1.57003e-05 1.16416 0.979927 -1.05892e-05 1.25072 0.967406 -5.47812e-06 1.34335 0.949893 2.492e-06 1.44218 0.927419 1.61802e-05 1.54893 0.900367 2.98684e-05 1.6641 0.868855 4.35567e-05 1.78772 0.832883 5.72449e-05 1.91976 0.792452 6.98966e-05 2.061 0.747795 8.203e-05 2.21388 0.699676 9.41635e-05 2.37858 0.648154 0.000106297 2.55512 0.593228 0.00011843 2.74348 0.534898 -3.42173e-05 0.99738 0.989998 -2.83915e-05 1.07091 0.987458 -2.25657e-05 1.15045 0.979927 -1.67399e-05 1.23598 0.967406 -1.09141e-05 1.32752 0.949893 -3.08667e-06 1.42519 0.927419 8.7439e-06 1.53068 0.900367 2.05745e-05 1.6445 0.868855 3.2405e-05 1.76665 0.832883 4.42356e-05 1.89714 0.792452 5.42232e-05 2.03672 0.747795 6.32893e-05 2.18779 0.699676 7.23554e-05 2.35056 0.648154 8.14215e-05 2.52501 0.593228 9.04876e-05 2.71116 0.534898 -3.99727e-05 0.985491 0.989998 -3.3661e-05 1.05815 0.987458 -2.73493e-05 1.13673 0.979927 -2.10377e-05 1.22125 0.967406 -1.4726e-05 1.3117 0.949893 -7.11837e-06 1.4082 0.927419 3.08114e-06 1.51243 0.900367 1.32807e-05 1.62489 0.868855 2.34802e-05 1.74559 0.832883 3.36797e-05 1.87452 0.792452 4.14644e-05 2.01243 0.747795 4.80418e-05 2.16171 0.699676 5.46192e-05 2.32253 0.648154 6.11966e-05 2.49491 0.593228 6.7774e-05 2.67884 0.534898 -4.31884e-05 0.973601 0.989998 -3.66197e-05 1.04538 0.987458 -3.00511e-05 1.12302 0.979927 -2.34825e-05 1.20652 0.967406 -1.69139e-05 1.29587 0.949893 -9.60309e-06 1.39121 0.927419 -8.08048e-07 1.49418 0.900367 7.98699e-06 1.60528 0.868855 1.6782e-05 1.72452 0.832883 2.55771e-05 1.8519 0.792452 3.16203e-05 1.98815 0.747795 3.62876e-05 2.13562 0.699676 4.09549e-05 2.29451 0.648154 4.56221e-05 2.46481 0.593228 5.02894e-05 2.64652 0.534898 -4.38644e-05 0.961712 0.989998 -3.72678e-05 1.03262 0.987458 -3.06711e-05 1.1093 0.979927 -2.40744e-05 1.19178 0.967406 -1.74777e-05 1.28004 0.949893 -1.05408e-05 1.37422 0.927419 -2.92367e-06 1.47593 0.900367 4.69349e-06 1.58567 0.868855 1.23107e-05 1.70346 0.832883 1.99278e-05 1.82928 0.792452 2.46907e-05 1.96386 0.747795 2.80265e-05 2.10954 0.699676 3.13623e-05 2.26649 0.648154 3.46981e-05 2.43471 0.593228 3.80339e-05 2.6142 0.534898 -4.21489e-05 0.942303 0.989998 -3.57397e-05 1.01178 0.987458 -2.93304e-05 1.08692 0.979927 -2.29212e-05 1.16773 0.967406 -1.65119e-05 1.25421 0.949893 -1.00204e-05 1.34648 0.927419 -3.36429e-06 1.44614 0.900367 3.29183e-06 1.55367 0.868855 9.94795e-06 1.66908 0.832883 1.66041e-05 1.79236 0.792452 2.05243e-05 1.92423 0.747795 2.30767e-05 2.06696 0.699676 2.5629e-05 2.22074 0.648154 2.81813e-05 2.38557 0.593228 3.07337e-05 2.56144 0.534898 -3.99655e-05 0.907854 0.989998 -3.37853e-05 0.974787 0.987458 -2.76051e-05 1.04718 0.979927 -2.1425e-05 1.12504 0.967406 -1.52448e-05 1.20836 0.949893 -9.19629e-06 1.29725 0.927419 -3.41124e-06 1.39327 0.900367 2.37381e-06 1.49687 0.868855 8.15886e-06 1.60806 0.832883 1.39439e-05 1.72684 0.792452 1.71517e-05 1.85388 0.747795 1.90709e-05 1.9914 0.699676 2.09902e-05 2.13956 0.648154 2.29094e-05 2.29836 0.593228 2.48286e-05 2.4678 0.534898 -3.79063e-05 0.873406 0.989998 -3.19432e-05 0.937799 0.987458 -2.59802e-05 1.00745 0.979927 -2.00171e-05 1.08235 0.967406 -1.4054e-05 1.16251 0.949893 -8.42369e-06 1.24803 0.927419 -3.45877e-06 1.3404 0.900367 1.50615e-06 1.44007 0.868855 6.47108e-06 1.54704 0.832883 1.1436e-05 1.66131 0.792452 1.3967e-05 1.78354 0.747795 1.52811e-05 1.91583 0.699676 1.65951e-05 2.05837 0.648154 1.79092e-05 2.21115 0.593228 1.92232e-05 2.37416 0.534898 -3.59712e-05 0.838958 0.989998 -3.02133e-05 0.900811 0.987458 -2.44555e-05 0.967712 0.979927 -1.86976e-05 1.03966 0.967406 -1.29398e-05 1.11665 0.949893 -7.70261e-06 1.19881 0.927419 -3.50688e-06 1.28753 0.900367 6.88856e-07 1.38327 0.868855 4.88459e-06 1.48602 0.832883 9.08033e-06 1.59579 0.792452 1.09702e-05 1.71319 0.747795 1.1707e-05 1.84027 0.699676 1.24439e-05 1.97719 0.648154 1.31808e-05 2.12394 0.593228 1.39177e-05 2.28052 0.534898 -3.41602e-05 0.80451 0.989998 -2.85956e-05 0.863823 0.987458 -2.30311e-05 0.927977 0.979927 -1.74665e-05 0.99697 0.967406 -1.19019e-05 1.0708 0.949893 -7.03305e-06 1.14958 0.927419 -3.55557e-06 1.23467 0.900367 -7.80807e-08 1.32647 0.868855 3.39941e-06 1.42501 0.832883 6.87689e-06 1.53026 0.792452 8.16117e-06 1.64285 0.747795 8.34885e-06 1.76471 0.699676 8.53652e-06 1.896 0.648154 8.7242e-06 2.03673 0.593228 8.91187e-06 2.18688 0.534898 -3.27364e-05 0.757728 0.989998 -2.73253e-05 0.813592 0.987458 -2.19141e-05 0.874015 0.979927 -1.65029e-05 0.938997 0.967406 -1.10917e-05 1.00854 0.949893 -6.55766e-06 1.08274 0.927419 -3.77777e-06 1.16287 0.900367 -9.9789e-07 1.24934 0.868855 1.782e-06 1.34214 0.832883 4.56188e-06 1.44128 0.792452 5.22315e-06 1.54732 0.747795 4.8251e-06 1.66209 0.699676 4.42706e-06 1.78575 0.648154 4.02902e-06 1.91829 0.593228 3.63097e-06 2.05972 0.534898 -3.2555e-05 0.704779 0.989998 -2.71664e-05 0.756739 0.987458 -2.17778e-05 0.81294 0.979927 -1.63892e-05 0.873382 0.967406 -1.10006e-05 0.938063 0.949893 -6.74002e-06 1.00708 0.927419 -4.73555e-06 1.08161 0.900367 -2.73107e-06 1.16204 0.868855 -7.266e-07 1.24836 0.832883 1.27787e-06 1.34057 0.792452 1.12612e-06 1.43919 0.747795 -1.03738e-07 1.54595 0.699676 -1.3336e-06 1.66097 0.648154 -2.56346e-06 1.78425 0.593228 -3.79332e-06 1.91579 0.534898 -3.36818e-05 0.65183 0.989998 -2.81779e-05 0.699887 0.987458 -2.2674e-05 0.751866 0.979927 -1.71702e-05 0.807766 0.967406 -1.16663e-05 0.867589 0.949893 -7.6158e-06 0.931419 0.927419 -6.47212e-06 1.00036 0.900367 -5.32844e-06 1.07474 0.868855 -4.18476e-06 1.15458 0.832883 -3.04108e-06 1.23986 0.792452 -4.20912e-06 1.33107 0.747795 -6.53303e-06 1.42981 0.699676 -8.85693e-06 1.53618 0.648154 -1.11808e-05 1.6502 0.593228 -1.35047e-05 1.77186 0.534898 -3.61167e-05 0.598881 0.989998 -3.03597e-05 0.643034 0.987458 -2.46027e-05 0.690791 0.979927 -1.88458e-05 0.742151 0.967406 -1.30888e-05 0.797115 0.949893 -9.18499e-06 0.85576 0.927419 -8.98749e-06 0.919099 0.900367 -8.78999e-06 0.987443 0.868855 -8.59249e-06 1.06079 0.832883 -8.39499e-06 1.13915 0.792452 -1.07826e-05 1.22295 0.747795 -1.44628e-05 1.31367 0.699676 -1.81429e-05 1.4114 0.648154 -2.18231e-05 1.51615 0.593228 -2.55032e-05 1.62793 0.534898 -3.98597e-05 0.545932 0.989998 -3.37118e-05 0.586181 0.987458 -2.75639e-05 0.629716 0.979927 -2.1416e-05 0.676536 0.967406 -1.52682e-05 0.726641 0.949893 -1.14476e-05 0.780102 0.927419 -1.22817e-05 0.837841 0.900367 -1.31157e-05 0.900143 0.868855 -1.39498e-05 0.967007 0.832883 -1.47838e-05 1.03843 0.792452 -1.85943e-05 1.11483 0.747795 -2.38929e-05 1.19752 0.699676 -2.91916e-05 1.28662 0.648154 -3.44902e-05 1.38211 0.593228 -3.97889e-05 1.484 0.534898 -3.10455e-05 1.00927 1.07423 -2.72875e-05 1.08368 1.07147 -2.35295e-05 1.16416 1.0633 -1.97714e-05 1.25072 1.04971 -1.60134e-05 1.34335 1.03071 -9.20238e-06 1.44218 1.00632 3.71469e-06 1.54893 0.976968 1.66317e-05 1.6641 0.942775 2.95488e-05 1.78772 0.903743 4.24659e-05 1.91976 0.859872 5.4703e-05 2.061 0.811416 6.66002e-05 2.21388 0.759204 7.84975e-05 2.37858 0.703299 9.03947e-05 2.55512 0.6437 0.000102292 2.74348 0.580408 0.00508499 0.99738 1.07423 0.00508947 1.07091 1.07147 0.00509394 1.15045 1.0633 0.00509841 1.23598 1.04971 0.00510288 1.32752 1.03071 0.00510955 1.42519 1.00632 0.00512061 1.53068 0.976968 0.00513167 1.6445 0.942775 0.00514273 1.76665 0.903743 0.00515379 1.89714 0.859872 0.00516336 2.03672 0.811416 0.00517219 2.18779 0.759204 0.00518102 2.35056 0.703299 0.00518985 2.52501 0.6437 0.00519868 2.71116 0.580408 0.0101416 0.985491 1.07423 0.0101465 1.05815 1.07147 0.0101515 1.13673 1.0633 0.0101564 1.22125 1.04971 0.0101614 1.3117 1.03071 0.0101679 1.4082 1.00632 0.0101773 1.51243 0.976968 0.0101867 1.62489 0.942775 0.0101961 1.74559 0.903743 0.0102056 1.87452 0.859872 0.0102129 2.01243 0.811416 0.0102193 2.16171 0.759204 0.0102256 2.32253 0.703299 0.010232 2.49491 0.6437 0.0102383 2.67884 0.580408 0.0151387 0.973601 1.07423 0.0151439 1.04538 1.07147 0.0151491 1.12302 1.0633 0.0151543 1.20652 1.04971 0.0151595 1.29587 1.03071 0.0151657 1.39121 1.00632 0.0151737 1.49418 0.976968 0.0151817 1.60528 0.942775 0.0151898 1.72452 0.903743 0.0151978 1.8519 0.859872 0.0152034 1.98815 0.811416 0.0152079 2.13562 0.759204 0.0152123 2.29451 0.703299 0.0152167 2.46481 0.6437 0.0152211 2.64652 0.580408 0.0200763 0.961712 1.07423 0.0200816 1.03262 1.07147 0.0200868 1.1093 1.0633 0.0200921 1.19178 1.04971 0.0200973 1.28004 1.03071 0.0201031 1.37422 1.00632 0.0201099 1.47593 0.976968 0.0201168 1.58567 0.942775 0.0201236 1.70346 0.903743 0.0201305 1.82928 0.859872 0.0201348 1.96386 0.811416 0.0201379 2.10954 0.759204 0.020141 2.26649 0.703299 0.0201441 2.43471 0.6437 0.0201472 2.6142 0.580408 0.0249481 0.942303 1.07423 0.0249531 1.01178 1.07147 0.0249582 1.08692 1.0633 0.0249632 1.16773 1.04971 0.0249683 1.25421 1.03071 0.0249736 1.34648 1.00632 0.0249795 1.44614 0.976968 0.0249854 1.55367 0.942775 0.0249913 1.66908 0.903743 0.0249972 1.79236 0.859872 0.0250007 1.92423 0.811416 0.025003 2.06696 0.759204 0.0250053 2.22074 0.703299 0.0250076 2.38557 0.6437 0.0250099 2.56144 0.580408 0.0296698 0.907854 1.07423 0.0296746 0.974787 1.07147 0.0296795 1.04718 1.0633 0.0296843 1.12504 1.04971 0.0296891 1.20836 1.03071 0.029694 1.29725 1.00632 0.029699 1.39327 0.976968 0.029704 1.49687 0.942775 0.0297091 1.60806 0.903743 0.0297141 1.72684 0.859872 0.0297169 1.85388 0.811416 0.0297185 1.9914 0.759204 0.0297202 2.13956 0.703299 0.0297219 2.29836 0.6437 0.0297236 2.4678 0.580408 0.0342158 0.873406 1.07423 0.0342204 0.937799 1.07147 0.034225 1.00745 1.0633 0.0342296 1.08235 1.04971 0.0342342 1.16251 1.03071 0.0342387 1.24803 1.00632 0.0342429 1.3404 0.976968 0.0342471 1.44007 0.942775 0.0342512 1.54704 0.903743 0.0342554 1.66131 0.859872 0.0342576 1.78354 0.811416 0.0342586 1.91583 0.759204 0.0342597 2.05837 0.703299 0.0342608 2.21115 0.6437 0.0342619 2.37416 0.580408 0.0385859 0.838958 1.07423 0.0385903 0.900811 1.07147 0.0385947 0.967712 1.0633 0.0385991 1.03966 1.04971 0.0386035 1.11665 1.03071 0.0386076 1.19881 1.00632 0.038611 1.28753 0.976968 0.0386144 1.38327 0.942775 0.0386178 1.48602 0.903743 0.0386213 1.59579 0.859872 0.0386227 1.71319 0.811416 0.0386232 1.84027 0.759204 0.0386237 1.97719 0.703299 0.0386242 2.12394 0.6437 0.0386247 2.28052 0.580408 0.0427801 0.80451 1.07423 0.0427844 0.863823 1.07147 0.0427886 0.927977 1.0633 0.0427928 0.99697 1.04971 0.042797 1.0708 1.03071 0.0428007 1.14958 1.00632 0.0428034 1.23467 0.976968 0.0428061 1.32647 0.942775 0.0428088 1.42501 0.903743 0.0428115 1.53026 0.859872 0.0428124 1.64285 0.811416 0.0428123 1.76471 0.759204 0.0428123 1.896 0.703299 0.0428122 2.03673 0.6437 0.0428122 2.18688 0.580408 0.0467775 0.757728 1.07423 0.0467815 0.813592 1.07147 0.0467856 0.874015 1.0633 0.0467897 0.938997 1.04971 0.0467937 1.00854 1.03071 0.0467971 1.08274 1.00632 0.0467991 1.16287 0.976968 0.0468011 1.24934 0.942775 0.0468031 1.34214 0.903743 0.0468051 1.44128 0.859872 0.0468054 1.54732 0.811416 0.0468047 1.66209 0.759204 0.0468041 1.78575 0.703299 0.0468035 1.91829 0.6437 0.0468028 2.05972 0.580408 0.0505092 0.704779 1.07423 0.0505133 0.756739 1.07147 0.0505173 0.81294 1.0633 0.0505214 0.873382 1.04971 0.0505254 0.938063 1.03071 0.0505285 1.00708 1.00632 0.0505297 1.08161 0.976968 0.050531 1.16204 0.942775 0.0505322 1.24836 0.903743 0.0505334 1.34057 0.859872 0.0505329 1.43919 0.811416 0.0505314 1.54595 0.759204 0.0505299 1.66097 0.703299 0.0505285 1.78425 0.6437 0.050527 1.91579 0.580408 0.0539702 0.65183 1.07423 0.0539743 0.699887 1.07147 0.0539785 0.751866 1.0633 0.0539826 0.807766 1.04971 0.0539868 0.867589 1.03071 0.0539897 0.931419 1.00632 0.05399 1.00036 0.976968 0.0539904 1.07474 0.942775 0.0539908 1.15458 0.903743 0.0539912 1.23986 0.859872 0.0539896 1.33107 0.811416 0.053987 1.42981 0.759204 0.0539844 1.53618 0.703299 0.0539819 1.6502 0.6437 0.0539793 1.77186 0.580408 0.0571602 0.598881 1.07423 0.0571646 0.643034 1.07147 0.057169 0.690791 1.0633 0.0571734 0.742151 1.04971 0.0571779 0.797115 1.03071 0.0571806 0.85576 1.00632 0.05718 0.919099 0.976968 0.0571795 0.987443 0.942775 0.0571789 1.06079 0.903743 0.0571783 1.13915 0.859872 0.0571755 1.22295 0.811416 0.0571716 1.31367 0.759204 0.0571677 1.4114 0.703299 0.0571638 1.51615 0.6437 0.0571598 1.62793 0.580408 0.0600795 0.545932 1.07423 0.0600843 0.586181 1.07147 0.0600891 0.629716 1.0633 0.0600938 0.676536 1.04971 0.0600986 0.726641 1.03071 0.0601013 0.780102 1.00632 0.0600997 0.837841 0.976968 0.0600981 0.900143 0.942775 0.0600965 0.967007 0.903743 0.0600949 1.03843 0.859872 0.0600907 1.11483 0.811416 0.0600851 1.19752 0.759204 0.0600796 1.28662 0.703299 0.0600741 1.38211 0.6437 0.0600685 1.484 0.580408 -3.46607e-05 1.00927 1.15846 -3.20085e-05 1.08368 1.15548 -2.93562e-05 1.16416 1.14667 -2.6704e-05 1.25072 1.13202 -2.40517e-05 1.34335 1.11152 -1.82168e-05 1.44218 1.08522 -6.01666e-06 1.54893 1.05357 6.18349e-06 1.6641 1.0167 1.83836e-05 1.78772 0.974603 3.05838e-05 1.91976 0.927293 4.24282e-05 2.061 0.875038 5.40946e-05 2.21388 0.818732 6.57611e-05 2.37858 0.758443 7.74276e-05 2.55512 0.694172 8.90941e-05 2.74348 0.625918 0.0102044 0.99738 1.15846 0.0102077 1.07091 1.15548 0.0102111 1.15045 1.14667 0.0102145 1.23598 1.13202 0.0102178 1.32752 1.11152 0.0102235 1.42519 1.08522 0.0102339 1.53068 1.05357 0.0102442 1.6445 1.0167 0.0102546 1.76665 0.974603 0.0102649 1.89714 0.927293 0.0102741 2.03672 0.875038 0.0102827 2.18779 0.818732 0.0102913 2.35056 0.758443 0.0102999 2.52501 0.694172 0.0103085 2.71116 0.625918 0.0203223 0.985491 1.15846 0.0203262 1.05815 1.15548 0.02033 1.13673 1.14667 0.0203339 1.22125 1.13202 0.0203377 1.3117 1.11152 0.0203432 1.4082 1.08522 0.0203519 1.51243 1.05357 0.0203606 1.62489 1.0167 0.0203693 1.74559 0.974603 0.020378 1.87452 0.927293 0.020385 2.01243 0.875038 0.0203911 2.16171 0.818732 0.0203972 2.32253 0.758443 0.0204033 2.49491 0.694172 0.0204095 2.67884 0.625918 0.0303192 0.973601 1.15846 0.0303233 1.04538 1.15548 0.0303274 1.12302 1.14667 0.0303315 1.20652 1.13202 0.0303356 1.29587 1.11152 0.0303408 1.39121 1.08522 0.0303481 1.49418 1.05357 0.0303554 1.60528 1.0167 0.0303627 1.72452 0.974603 0.03037 1.8519 0.927293 0.0303752 1.98815 0.875038 0.0303794 2.13562 0.818732 0.0303836 2.29451 0.758443 0.0303878 2.46481 0.694172 0.030392 2.64652 0.625918 0.0401949 0.961712 1.15846 0.040199 1.03262 1.15548 0.0402032 1.1093 1.14667 0.0402073 1.19178 1.13202 0.0402115 1.28004 1.11152 0.0402163 1.37422 1.08522 0.0402224 1.47593 1.05357 0.0402285 1.58567 1.0167 0.0402346 1.70346 0.974603 0.0402408 1.82928 0.927293 0.0402447 1.96386 0.875038 0.0402476 2.10954 0.818732 0.0402505 2.26649 0.758443 0.0402533 2.43471 0.694172 0.0402562 2.6142 0.625918 0.0499368 0.942303 1.15846 0.0499407 1.01178 1.15548 0.0499447 1.08692 1.14667 0.0499486 1.16773 1.13202 0.0499526 1.25421 1.11152 0.0499569 1.34648 1.08522 0.0499621 1.44614 1.05357 0.0499673 1.55367 1.0167 0.0499724 1.66908 0.974603 0.0499776 1.79236 0.927293 0.0499807 1.92423 0.875038 0.0499828 2.06696 0.818732 0.0499849 2.22074 0.758443 0.049987 2.38557 0.694172 0.049989 2.56144 0.625918 0.0593783 0.907854 1.15846 0.059382 0.974787 1.15548 0.0593857 1.04718 1.14667 0.0593894 1.12504 1.13202 0.0593932 1.20836 1.11152 0.0593971 1.29725 1.08522 0.0594014 1.39327 1.05357 0.0594057 1.49687 1.0167 0.05941 1.60806 0.974603 0.0594143 1.72684 0.927293 0.0594167 1.85388 0.875038 0.0594181 1.9914 0.818732 0.0594196 2.13956 0.758443 0.059421 2.29836 0.694172 0.0594225 2.4678 0.625918 0.0684682 0.873406 1.15846 0.0684717 0.937799 1.15548 0.0684752 1.00745 1.14667 0.0684787 1.08235 1.13202 0.0684822 1.16251 1.11152 0.0684857 1.24803 1.08522 0.0684892 1.3404 1.05357 0.0684927 1.44007 1.0167 0.0684962 1.54704 0.974603 0.0684996 1.66131 0.927293 0.0685014 1.78354 0.875038 0.0685022 1.91583 0.818732 0.0685031 2.05837 0.758443 0.0685039 2.21115 0.694172 0.0685048 2.37416 0.625918 0.0772066 0.838958 1.15846 0.0772099 0.900811 1.15548 0.0772132 0.967712 1.14667 0.0772165 1.03966 1.13202 0.0772198 1.11665 1.11152 0.0772229 1.19881 1.08522 0.0772256 1.28753 1.05357 0.0772283 1.38327 1.0167 0.0772311 1.48602 0.974603 0.0772338 1.59579 0.927293 0.0772348 1.71319 0.875038 0.0772351 1.84027 0.818732 0.0772354 1.97719 0.758443 0.0772357 2.12394 0.694172 0.0772359 2.28052 0.625918 0.0855935 0.80451 1.15846 0.0855966 0.863823 1.15548 0.0855997 0.927977 1.14667 0.0856028 0.99697 1.13202 0.0856059 1.0708 1.11152 0.0856086 1.14958 1.08522 0.0856106 1.23467 1.05357 0.0856126 1.32647 1.0167 0.0856146 1.42501 0.974603 0.0856166 1.53026 0.927293 0.0856171 1.64285 0.875038 0.0856168 1.76471 0.818732 0.0856165 1.896 0.758443 0.0856162 2.03673 0.694172 0.085616 2.18688 0.625918 0.0935868 0.757728 1.15846 0.0935897 0.813592 1.15548 0.0935927 0.874015 1.14667 0.0935956 0.938997 1.13202 0.0935986 1.00854 1.11152 0.093601 1.08274 1.08522 0.0936023 1.16287 1.05357 0.0936036 1.24934 1.0167 0.0936049 1.34214 0.974603 0.0936062 1.44128 0.927293 0.093606 1.54732 0.875038 0.0936051 1.66209 0.818732 0.0936043 1.78575 0.758443 0.0936034 1.91829 0.694172 0.0936025 2.05972 0.625918 0.10105 0.704779 1.15846 0.101053 0.756739 1.15548 0.101056 0.81294 1.14667 0.101059 0.873382 1.13202 0.101062 0.938063 1.11152 0.101064 1.00708 1.08522 0.101064 1.08161 1.05357 0.101065 1.16204 1.0167 0.101065 1.24836 0.974603 0.101066 1.34057 0.927293 0.101065 1.43919 0.875038 0.101063 1.54595 0.818732 0.101062 1.66097 0.758443 0.10106 1.78425 0.694172 0.101058 1.91579 0.625918 0.107973 0.65183 1.15846 0.107976 0.699887 1.15548 0.107979 0.751866 1.14667 0.107982 0.807766 1.13202 0.107985 0.867589 1.11152 0.107987 0.931419 1.08522 0.107986 1.00036 1.05357 0.107986 1.07474 1.0167 0.107986 1.15458 0.974603 0.107985 1.23986 0.927293 0.107983 1.33107 0.875038 0.107981 1.42981 0.818732 0.107978 1.53618 0.758443 0.107975 1.6502 0.694172 0.107972 1.77186 0.625918 0.114355 0.598881 1.15846 0.114358 0.643034 1.15548 0.114361 0.690791 1.14667 0.114365 0.742151 1.13202 0.114368 0.797115 1.11152 0.11437 0.85576 1.08522 0.114368 0.919099 1.05357 0.114367 0.987443 1.0167 0.114366 1.06079 0.974603 0.114365 1.13915 0.927293 0.114361 1.22295 0.875038 0.114357 1.31367 0.818732 0.114353 1.4114 0.758443 0.114349 1.51615 0.694172 0.114345 1.62793 0.625918 0.120196 0.545932 1.15846 0.1202 0.586181 1.15548 0.120204 0.629716 1.14667 0.120207 0.676536 1.13202 0.120211 0.726641 1.11152 0.120213 0.780102 1.08522 0.12021 0.837841 1.05357 0.120208 0.900143 1.0167 0.120206 0.967007 0.974603 0.120204 1.03843 0.927293 0.120199 1.11483 0.875038 0.120193 1.19752 0.818732 0.120187 1.28662 0.758443 0.120182 1.38211 0.694172 0.120176 1.484 0.625918 -3.67681e-05 1.00927 1.24269 -3.49743e-05 1.08368 1.2395 -3.31806e-05 1.16416 1.23004 -3.13868e-05 1.25072 1.21432 -2.9593e-05 1.34335 1.19234 -2.45513e-05 1.44218 1.16413 -1.30138e-05 1.54893 1.13017 -1.47633e-06 1.6641 1.09062 1.00611e-05 1.78772 1.04546 2.15986e-05 1.91976 0.994713 3.3072e-05 2.061 0.938659 4.45132e-05 2.21388 0.87826 5.59544e-05 2.37858 0.813588 6.73957e-05 2.55512 0.744645 7.88369e-05 2.74348 0.671429 0.0153239 0.99738 1.24269 0.0153264 1.07091 1.2395 0.0153289 1.15045 1.23004 0.0153314 1.23598 1.21432 0.015334 1.32752 1.19234 0.0153389 1.42519 1.16413 0.0153485 1.53068 1.13017 0.0153582 1.6445 1.09062 0.0153679 1.76665 1.04546 0.0153776 1.89714 0.994713 0.0153864 2.03672 0.938659 0.0153948 2.18779 0.87826 0.0154031 2.35056 0.813588 0.0154115 2.52501 0.744645 0.0154199 2.71116 0.671429 0.0305023 0.985491 1.24269 0.0305052 1.05815 1.2395 0.0305082 1.13673 1.23004 0.0305112 1.22125 1.21432 0.0305142 1.3117 1.19234 0.0305189 1.4082 1.16413 0.030527 1.51243 1.13017 0.030535 1.62489 1.09062 0.0305431 1.74559 1.04546 0.0305511 1.87452 0.994713 0.0305577 2.01243 0.938659 0.0305636 2.16171 0.87826 0.0305695 2.32253 0.813588 0.0305754 2.49491 0.744645 0.0305813 2.67884 0.671429 0.0454982 0.973601 1.24269 0.0455015 1.04538 1.2395 0.0455047 1.12302 1.23004 0.045508 1.20652 1.21432 0.0455112 1.29587 1.19234 0.0455156 1.39121 1.16413 0.0455223 1.49418 1.13017 0.0455289 1.60528 1.09062 0.0455355 1.72452 1.04546 0.0455422 1.8519 0.994713 0.0455471 1.98815 0.938659 0.045551 2.13562 0.87826 0.045555 2.29451 0.813588 0.045559 2.46481 0.744645 0.045563 2.64652 0.671429 0.0603118 0.961712 1.24269 0.0603151 1.03262 1.2395 0.0603184 1.1093 1.23004 0.0603217 1.19178 1.21432 0.060325 1.28004 1.19234 0.060329 1.37422 1.16413 0.0603344 1.47593 1.13017 0.0603399 1.58567 1.09062 0.0603454 1.70346 1.04546 0.0603508 1.82928 0.994713 0.0603544 1.96386 0.938659 0.0603571 2.10954 0.87826 0.0603597 2.26649 0.813588 0.0603624 2.43471 0.744645 0.060365 2.6142 0.671429 0.0749239 0.942303 1.24269 0.074927 1.01178 1.2395 0.0749301 1.08692 1.23004 0.0749332 1.16773 1.21432 0.0749363 1.25421 1.19234 0.0749399 1.34648 1.16413 0.0749444 1.44614 1.13017 0.0749489 1.55367 1.09062 0.0749534 1.66908 1.04546 0.0749579 1.79236 0.994713 0.0749606 1.92423 0.938659 0.0749625 2.06696 0.87826 0.0749644 2.22074 0.813588 0.0749662 2.38557 0.744645 0.0749681 2.56144 0.671429 0.0890854 0.907854 1.24269 0.0890882 0.974787 1.2395 0.0890911 1.04718 1.23004 0.089094 1.12504 1.21432 0.0890968 1.20836 1.19234 0.0891 1.29725 1.16413 0.0891036 1.39327 1.13017 0.0891072 1.49687 1.09062 0.0891109 1.60806 1.04546 0.0891145 1.72684 0.994713 0.0891165 1.85388 0.938659 0.0891178 1.9914 0.87826 0.089119 2.13956 0.813588 0.0891202 2.29836 0.744645 0.0891214 2.4678 0.671429 0.10272 0.873406 1.24269 0.102722 0.937799 1.2395 0.102725 1.00745 1.23004 0.102727 1.08235 1.21432 0.10273 1.16251 1.19234 0.102733 1.24803 1.16413 0.102736 1.3404 1.13017 0.102738 1.44007 1.09062 0.102741 1.54704 1.04546 0.102744 1.66131 0.994713 0.102745 1.78354 0.938659 0.102746 1.91583 0.87826 0.102747 2.05837 0.813588 0.102747 2.21115 0.744645 0.102748 2.37416 0.671429 0.115826 0.838958 1.24269 0.115829 0.900811 1.2395 0.115831 0.967712 1.23004 0.115834 1.03966 1.21432 0.115836 1.11665 1.19234 0.115838 1.19881 1.16413 0.11584 1.28753 1.13017 0.115843 1.38327 1.09062 0.115845 1.48602 1.04546 0.115847 1.59579 0.994713 0.115847 1.71319 0.938659 0.115847 1.84027 0.87826 0.115847 1.97719 0.813588 0.115847 2.12394 0.744645 0.115847 2.28052 0.671429 0.128406 0.80451 1.24269 0.128408 0.863823 1.2395 0.12841 0.927977 1.23004 0.128413 0.99697 1.21432 0.128415 1.0708 1.19234 0.128417 1.14958 1.16413 0.128418 1.23467 1.13017 0.128419 1.32647 1.09062 0.128421 1.42501 1.04546 0.128422 1.53026 0.994713 0.128422 1.64285 0.938659 0.128422 1.76471 0.87826 0.128421 1.896 0.813588 0.128421 2.03673 0.744645 0.12842 2.18688 0.671429 0.140395 0.757728 1.24269 0.140397 0.813592 1.2395 0.140399 0.874015 1.23004 0.140401 0.938997 1.21432 0.140404 1.00854 1.19234 0.140405 1.08274 1.16413 0.140406 1.16287 1.13017 0.140406 1.24934 1.09062 0.140407 1.34214 1.04546 0.140408 1.44128 0.994713 0.140407 1.54732 0.938659 0.140406 1.66209 0.87826 0.140405 1.78575 0.813588 0.140404 1.91829 0.744645 0.140403 2.05972 0.671429 0.15159 0.704779 1.24269 0.151592 0.756739 1.2395 0.151594 0.81294 1.23004 0.151596 0.873382 1.21432 0.151598 0.938063 1.19234 0.151599 1.00708 1.16413 0.151599 1.08161 1.13017 0.151599 1.16204 1.09062 0.151599 1.24836 1.04546 0.151599 1.34057 0.994713 0.151597 1.43919 0.938659 0.151596 1.54595 0.87826 0.151594 1.66097 0.813588 0.151592 1.78425 0.744645 0.15159 1.91579 0.671429 0.161974 0.65183 1.24269 0.161976 0.699887 1.2395 0.161978 0.751866 1.23004 0.16198 0.807766 1.21432 0.161983 0.867589 1.19234 0.161984 0.931419 1.16413 0.161983 1.00036 1.13017 0.161982 1.07474 1.09062 0.161981 1.15458 1.04546 0.16198 1.23986 0.994713 0.161977 1.33107 0.938659 0.161974 1.42981 0.87826 0.161971 1.53618 0.813588 0.161968 1.6502 0.744645 0.161965 1.77186 0.671429 0.171548 0.598881 1.24269 0.17155 0.643034 1.2395 0.171552 0.690791 1.23004 0.171555 0.742151 1.21432 0.171557 0.797115 1.19234 0.171558 0.85576 1.16413 0.171556 0.919099 1.13017 0.171554 0.987443 1.09062 0.171552 1.06079 1.04546 0.171551 1.13915 0.994713 0.171547 1.22295 0.938659 0.171543 1.31367 0.87826 0.171538 1.4114 0.813588 0.171534 1.51615 0.744645 0.171529 1.62793 0.671429 0.180311 0.545932 1.24269 0.180314 0.586181 1.2395 0.180317 0.629716 1.23004 0.180319 0.676536 1.21432 0.180322 0.726641 1.19234 0.180323 0.780102 1.16413 0.18032 0.837841 1.13017 0.180317 0.900143 1.09062 0.180314 0.967007 1.04546 0.180311 1.03843 0.994713 0.180306 1.11483 0.938659 0.1803 1.19752 0.87826 0.180294 1.28662 0.813588 0.180288 1.38211 0.744645 0.180282 1.484 0.671429 -3.73677e-05 1.00927 1.32692 -3.61851e-05 1.08368 1.32351 -3.50025e-05 1.16416 1.31341 -3.38199e-05 1.25072 1.29663 -3.26373e-05 1.34335 1.27315 -2.82058e-05 1.44218 1.24303 -1.72768e-05 1.54893 1.20677 -6.34772e-06 1.6641 1.16454 4.58133e-06 1.78772 1.11632 1.55104e-05 1.91976 1.06213 2.66344e-05 2.061 1.00228 3.78559e-05 2.21388 0.937788 4.90774e-05 2.37858 0.868733 6.02989e-05 2.55512 0.795117 7.15204e-05 2.74348 0.716939 0.0204436 0.99738 1.32692 0.0204455 1.07091 1.32351 0.0204474 1.15045 1.31341 0.0204493 1.23598 1.29663 0.0204512 1.32752 1.27315 0.0204555 1.42519 1.24303 0.0204646 1.53068 1.20677 0.0204737 1.6445 1.16454 0.0204827 1.76665 1.11632 0.0204918 1.89714 1.06213 0.0205003 2.03672 1.00228 0.0205084 2.18779 0.937788 0.0205166 2.35056 0.868733 0.0205247 2.52501 0.795117 0.0205329 2.71116 0.716939 0.0406814 0.985491 1.32692 0.0406838 1.05815 1.32351 0.0406862 1.13673 1.31341 0.0406885 1.22125 1.29663 0.0406909 1.3117 1.27315 0.040695 1.4082 1.24303 0.0407024 1.51243 1.20677 0.0407099 1.62489 1.16454 0.0407173 1.74559 1.11632 0.0407248 1.87452 1.06213 0.040731 2.01243 1.00228 0.0407367 2.16171 0.937788 0.0407423 2.32253 0.868733 0.040748 2.49491 0.795117 0.0407537 2.67884 0.716939 0.0606759 0.973601 1.32692 0.0606785 1.04538 1.32351 0.0606812 1.12302 1.31341 0.0606838 1.20652 1.29663 0.0606865 1.29587 1.27315 0.0606902 1.39121 1.24303 0.0606963 1.49418 1.20677 0.0607023 1.60528 1.16454 0.0607083 1.72452 1.11632 0.0607144 1.8519 1.06213 0.0607189 1.98815 1.00228 0.0607227 2.13562 0.937788 0.0607264 2.29451 0.868733 0.0607302 2.46481 0.795117 0.0607339 2.64652 0.716939 0.0804272 0.961712 1.32692 0.0804298 1.03262 1.32351 0.0804325 1.1093 1.31341 0.0804352 1.19178 1.29663 0.0804378 1.28004 1.27315 0.0804412 1.37422 1.24303 0.0804461 1.47593 1.20677 0.0804509 1.58567 1.16454 0.0804558 1.70346 1.11632 0.0804607 1.82928 1.06213 0.0804639 1.96386 1.00228 0.0804663 2.10954 0.937788 0.0804687 2.26649 0.868733 0.0804712 2.43471 0.795117 0.0804736 2.6142 0.716939 0.0999096 0.942303 1.32692 0.0999121 1.01178 1.32351 0.0999146 1.08692 1.31341 0.0999171 1.16773 1.29663 0.0999195 1.25421 1.27315 0.0999225 1.34648 1.24303 0.0999264 1.44614 1.20677 0.0999303 1.55367 1.16454 0.0999342 1.66908 1.11632 0.0999381 1.79236 1.06213 0.0999405 1.92423 1.00228 0.0999421 2.06696 0.937788 0.0999438 2.22074 0.868733 0.0999454 2.38557 0.795117 0.099947 2.56144 0.716939 0.118791 0.907854 1.32692 0.118793 0.974787 1.32351 0.118796 1.04718 1.31341 0.118798 1.12504 1.29663 0.1188 1.20836 1.27315 0.118803 1.29725 1.24303 0.118806 1.39327 1.20677 0.118809 1.49687 1.16454 0.118812 1.60806 1.11632 0.118815 1.72684 1.06213 0.118816 1.85388 1.00228 0.118817 1.9914 0.937788 0.118818 2.13956 0.868733 0.118819 2.29836 0.795117 0.11882 2.4678 0.716939 0.13697 0.873406 1.32692 0.136972 0.937799 1.32351 0.136974 1.00745 1.31341 0.136976 1.08235 1.29663 0.136978 1.16251 1.27315 0.13698 1.24803 1.24303 0.136982 1.3404 1.20677 0.136984 1.44007 1.16454 0.136986 1.54704 1.11632 0.136989 1.66131 1.06213 0.13699 1.78354 1.00228 0.13699 1.91583 0.937788 0.13699 2.05837 0.868733 0.136991 2.21115 0.795117 0.136991 2.37416 0.716939 0.154445 0.838958 1.32692 0.154447 0.900811 1.32351 0.154449 0.967712 1.31341 0.15445 1.03966 1.29663 0.154452 1.11665 1.27315 0.154454 1.19881 1.24303 0.154455 1.28753 1.20677 0.154457 1.38327 1.16454 0.154458 1.48602 1.11632 0.15446 1.59579 1.06213 0.15446 1.71319 1.00228 0.15446 1.84027 0.937788 0.15446 1.97719 0.868733 0.15446 2.12394 0.795117 0.154459 2.28052 0.716939 0.171217 0.80451 1.32692 0.171219 0.863823 1.32351 0.171221 0.927977 1.31341 0.171222 0.99697 1.29663 0.171224 1.0708 1.27315 0.171225 1.14958 1.24303 0.171226 1.23467 1.20677 0.171227 1.32647 1.16454 0.171227 1.42501 1.11632 0.171228 1.53026 1.06213 0.171228 1.64285 1.00228 0.171227 1.76471 0.937788 0.171226 1.896 0.868733 0.171226 2.03673 0.795117 0.171225 2.18688 0.716939 0.187203 0.757728 1.32692 0.187204 0.813592 1.32351 0.187206 0.874015 1.31341 0.187207 0.938997 1.29663 0.187209 1.00854 1.27315 0.18721 1.08274 1.24303 0.18721 1.16287 1.20677 0.18721 1.24934 1.16454 0.18721 1.34214 1.11632 0.18721 1.44128 1.06213 0.187209 1.54732 1.00228 0.187207 1.66209 0.937788 0.187206 1.78575 0.868733 0.187205 1.91829 0.795117 0.187204 2.05972 0.716939 0.202128 0.704779 1.32692 0.20213 0.756739 1.32351 0.202131 0.81294 1.31341 0.202133 0.873382 1.29663 0.202134 0.938063 1.27315 0.202135 1.00708 1.24303 0.202134 1.08161 1.20677 0.202133 1.16204 1.16454 0.202133 1.24836 1.11632 0.202132 1.34057 1.06213 0.20213 1.43919 1.00228 0.202128 1.54595 0.937788 0.202126 1.66097 0.868733 0.202124 1.78425 0.795117 0.202122 1.91579 0.716939 0.215974 0.65183 1.32692 0.215975 0.699887 1.32351 0.215977 0.751866 1.31341 0.215978 0.807766 1.29663 0.21598 0.867589 1.27315 0.215981 0.931419 1.24303 0.215979 1.00036 1.20677 0.215977 1.07474 1.16454 0.215976 1.15458 1.11632 0.215974 1.23986 1.06213 0.215971 1.33107 1.00228 0.215968 1.42981 0.937788 0.215965 1.53618 0.868733 0.215962 1.6502 0.795117 0.215958 1.77186 0.716939 0.228739 0.598881 1.32692 0.22874 0.643034 1.32351 0.228742 0.690791 1.31341 0.228744 0.742151 1.29663 0.228746 0.797115 1.27315 0.228746 0.85576 1.24303 0.228744 0.919099 1.20677 0.228741 0.987443 1.16454 0.228739 1.06079 1.11632 0.228736 1.13915 1.06213 0.228732 1.22295 1.00228 0.228728 1.31367 0.937788 0.228723 1.4114 0.8687